V -t * -v 1.0a5 -a 0
A -t * -n 1 -p 0 -o 0x7fffffff -c 30 -a 1
A -t * -h 1 -m 1073741823 -s 0
c -t * -i 1 -n blue
c -t * -i 2 -n red
n -t * -a 4 -s 4 -S UP -v circle -c black -i black
n -t * -a 0 -s 0 -S UP -v circle -c black -i black
n -t * -a 5 -s 5 -S UP -v circle -c black -i black
n -t * -a 1 -s 1 -S UP -v circle -c black -i black
n -t * -a 2 -s 2 -S UP -v circle -c black -i black
n -t * -a 3 -s 3 -S UP -v circle -c black -i black
l -t * -s 0 -d 2 -S UP -r 2000000 -D 0.01 -c black -o right-down
l -t * -s 1 -d 2 -S UP -r 2000000 -D 0.01 -c black -o right-up
l -t * -s 2 -d 3 -S UP -r 300000 -D 0.10000000000000001 -c black -o right
l -t * -s 3 -d 4 -S UP -r 500000 -D 0.040000000000000001 -c black -o right-up
l -t * -s 3 -d 5 -S UP -r 500000 -D 0.040000000000000001 -c black -o right-down
+ -t 0.1 -s 0 -d 2 -p cbr -e 1000 -c 2 -i 0 -a 2 -x {0.0 4.0 0 ------- null}
- -t 0.1 -s 0 -d 2 -p cbr -e 1000 -c 2 -i 0 -a 2 -x {0.0 4.0 0 ------- null}
h -t 0.1 -s 0 -d 2 -p cbr -e 1000 -c 2 -i 0 -a 2 -x {0.0 4.0 -1 ------- null}
+ -t 0.1 -s 0 -d 2 -p cbr -e 24 -c 2 -i 1 -a 2 -x {0.0 4.0 1 ------- null}
- -t 0.104 -s 0 -d 2 -p cbr -e 24 -c 2 -i 1 -a 2 -x {0.0 4.0 1 ------- null}
h -t 0.104 -s 0 -d 2 -p cbr -e 24 -c 2 -i 1 -a 2 -x {0.0 4.0 -1 ------- null}
r -t 0.114 -s 0 -d 2 -p cbr -e 1000 -c 2 -i 0 -a 2 -x {0.0 4.0 0 ------- null}
+ -t 0.114 -s 2 -d 3 -p cbr -e 1000 -c 2 -i 0 -a 2 -x {0.0 4.0 0 ------- null}
- -t 0.114 -s 2 -d 3 -p cbr -e 1000 -c 2 -i 0 -a 2 -x {0.0 4.0 0 ------- null}
h -t 0.114 -s 2 -d 3 -p cbr -e 1000 -c 2 -i 0 -a 2 -x {0.0 4.0 -1 ------- null}
r -t 0.114096 -s 0 -d 2 -p cbr -e 24 -c 2 -i 1 -a 2 -x {0.0 4.0 1 ------- null}
+ -t 0.114096 -s 2 -d 3 -p cbr -e 24 -c 2 -i 1 -a 2 -x {0.0 4.0 1 ------- null}
- -t 0.140666666666667 -s 2 -d 3 -p cbr -e 24 -c 2 -i 1 -a 2 -x {0.0 4.0 1 ------- null}
h -t 0.140666666666667 -s 2 -d 3 -p cbr -e 24 -c 2 -i 1 -a 2 -x {0.0 4.0 -1 ------- null}
r -t 0.240666666666667 -s 2 -d 3 -p cbr -e 1000 -c 2 -i 0 -a 2 -x {0.0 4.0 0 ------- null}
+ -t 0.240666666666667 -s 3 -d 4 -p cbr -e 1000 -c 2 -i 0 -a 2 -x {0.0 4.0 0 ------- null}
- -t 0.240666666666667 -s 3 -d 4 -p cbr -e 1000 -c 2 -i 0 -a 2 -x {0.0 4.0 0 ------- null}
h -t 0.240666666666667 -s 3 -d 4 -p cbr -e 1000 -c 2 -i 0 -a 2 -x {0.0 4.0 -1 ------- null}
r -t 0.241306666666667 -s 2 -d 3 -p cbr -e 24 -c 2 -i 1 -a 2 -x {0.0 4.0 1 ------- null}
+ -t 0.241306666666667 -s 3 -d 4 -p cbr -e 24 -c 2 -i 1 -a 2 -x {0.0 4.0 1 ------- null}
- -t 0.256666666666667 -s 3 -d 4 -p cbr -e 24 -c 2 -i 1 -a 2 -x {0.0 4.0 1 ------- null}
h -t 0.256666666666667 -s 3 -d 4 -p cbr -e 24 -c 2 -i 1 -a 2 -x {0.0 4.0 -1 ------- null}
r -t 0.296666666666667 -s 3 -d 4 -p cbr -e 1000 -c 2 -i 0 -a 2 -x {0.0 4.0 0 ------- null}
r -t 0.297050666666667 -s 3 -d 4 -p cbr -e 24 -c 2 -i 1 -a 2 -x {0.0 4.0 1 ------- null}
+ -t 0.5 -s 1 -d 2 -p tcp -e 40 -c 1 -i 2 -a 1 -x {1.0 5.0 0 ------- null}
- -t 0.5 -s 1 -d 2 -p tcp -e 40 -c 1 -i 2 -a 1 -x {1.0 5.0 0 ------- null}
h -t 0.5 -s 1 -d 2 -p tcp -e 40 -c 1 -i 2 -a 1 -x {1.0 5.0 -1 ------- null}
r -t 0.51016 -s 1 -d 2 -p tcp -e 40 -c 1 -i 2 -a 1 -x {1.0 5.0 0 ------- null}
+ -t 0.51016 -s 2 -d 3 -p tcp -e 40 -c 1 -i 2 -a 1 -x {1.0 5.0 0 ------- null}
- -t 0.51016 -s 2 -d 3 -p tcp -e 40 -c 1 -i 2 -a 1 -x {1.0 5.0 0 ------- null}
h -t 0.51016 -s 2 -d 3 -p tcp -e 40 -c 1 -i 2 -a 1 -x {1.0 5.0 -1 ------- null}
r -t 0.611226666666667 -s 2 -d 3 -p tcp -e 40 -c 1 -i 2 -a 1 -x {1.0 5.0 0 ------- null}
+ -t 0.611226666666667 -s 3 -d 5 -p tcp -e 40 -c 1 -i 2 -a 1 -x {1.0 5.0 0 ------- null}
- -t 0.611226666666667 -s 3 -d 5 -p tcp -e 40 -c 1 -i 2 -a 1 -x {1.0 5.0 0 ------- null}
h -t 0.611226666666667 -s 3 -d 5 -p tcp -e 40 -c 1 -i 2 -a 1 -x {1.0 5.0 -1 ------- null}
r -t 0.651866666666667 -s 3 -d 5 -p tcp -e 40 -c 1 -i 2 -a 1 -x {1.0 5.0 0 ------- null}
+ -t 0.651866666666667 -s 5 -d 3 -p ack -e 40 -c 1 -i 3 -a 1 -x {5.0 1.0 0 ------- null}
- -t 0.651866666666667 -s 5 -d 3 -p ack -e 40 -c 1 -i 3 -a 1 -x {5.0 1.0 0 ------- null}
h -t 0.651866666666667 -s 5 -d 3 -p ack -e 40 -c 1 -i 3 -a 1 -x {5.0 1.0 -1 ------- null}
r -t 0.692506666666667 -s 5 -d 3 -p ack -e 40 -c 1 -i 3 -a 1 -x {5.0 1.0 0 ------- null}
+ -t 0.692506666666667 -s 3 -d 2 -p ack -e 40 -c 1 -i 3 -a 1 -x {5.0 1.0 0 ------- null}
- -t 0.692506666666667 -s 3 -d 2 -p ack -e 40 -c 1 -i 3 -a 1 -x {5.0 1.0 0 ------- null}
h -t 0.692506666666667 -s 3 -d 2 -p ack -e 40 -c 1 -i 3 -a 1 -x {5.0 1.0 -1 ------- null}
r -t 0.793573333333333 -s 3 -d 2 -p ack -e 40 -c 1 -i 3 -a 1 -x {5.0 1.0 0 ------- null}
+ -t 0.793573333333333 -s 2 -d 1 -p ack -e 40 -c 1 -i 3 -a 1 -x {5.0 1.0 0 ------- null}
- -t 0.793573333333333 -s 2 -d 1 -p ack -e 40 -c 1 -i 3 -a 1 -x {5.0 1.0 0 ------- null}
h -t 0.793573333333333 -s 2 -d 1 -p ack -e 40 -c 1 -i 3 -a 1 -x {5.0 1.0 -1 ------- null}
r -t 0.803733333333333 -s 2 -d 1 -p ack -e 40 -c 1 -i 3 -a 1 -x {5.0 1.0 0 ------- null}
+ -t 0.803733333333333 -s 1 -d 2 -p tcp -e 552 -c 1 -i 4 -a 1 -x {1.0 5.0 1 ------- null}
- -t 0.803733333333333 -s 1 -d 2 -p tcp -e 552 -c 1 -i 4 -a 1 -x {1.0 5.0 1 ------- null}
h -t 0.803733333333333 -s 1 -d 2 -p tcp -e 552 -c 1 -i 4 -a 1 -x {1.0 5.0 -1 ------- null}
+ -t 0.803733333333333 -s 1 -d 2 -p tcp -e 552 -c 1 -i 5 -a 1 -x {1.0 5.0 2 ------- null}
- -t 0.805941333333333 -s 1 -d 2 -p tcp -e 552 -c 1 -i 5 -a 1 -x {1.0 5.0 2 ------- null}
h -t 0.805941333333333 -s 1 -d 2 -p tcp -e 552 -c 1 -i 5 -a 1 -x {1.0 5.0 -1 ------- null}
r -t 0.815941333333333 -s 1 -d 2 -p tcp -e 552 -c 1 -i 4 -a 1 -x {1.0 5.0 1 ------- null}
+ -t 0.815941333333333 -s 2 -d 3 -p tcp -e 552 -c 1 -i 4 -a 1 -x {1.0 5.0 1 ------- null}
- -t 0.815941333333333 -s 2 -d 3 -p tcp -e 552 -c 1 -i 4 -a 1 -x {1.0 5.0 1 ------- null}
h -t 0.815941333333333 -s 2 -d 3 -p tcp -e 552 -c 1 -i 4 -a 1 -x {1.0 5.0 -1 ------- null}
r -t 0.818149333333333 -s 1 -d 2 -p tcp -e 552 -c 1 -i 5 -a 1 -x {1.0 5.0 2 ------- null}
+ -t 0.818149333333333 -s 2 -d 3 -p tcp -e 552 -c 1 -i 5 -a 1 -x {1.0 5.0 2 ------- null}
- -t 0.830661333333333 -s 2 -d 3 -p tcp -e 552 -c 1 -i 5 -a 1 -x {1.0 5.0 2 ------- null}
h -t 0.830661333333333 -s 2 -d 3 -p tcp -e 552 -c 1 -i 5 -a 1 -x {1.0 5.0 -1 ------- null}
+ -t 0.9192 -s 0 -d 2 -p cbr -e 1000 -c 2 -i 6 -a 2 -x {0.0 4.0 2 ------- null}
- -t 0.9192 -s 0 -d 2 -p cbr -e 1000 -c 2 -i 6 -a 2 -x {0.0 4.0 2 ------- null}
h -t 0.9192 -s 0 -d 2 -p cbr -e 1000 -c 2 -i 6 -a 2 -x {0.0 4.0 -1 ------- null}
+ -t 0.9192 -s 0 -d 2 -p cbr -e 24 -c 2 -i 7 -a 2 -x {0.0 4.0 3 ------- null}
- -t 0.9232 -s 0 -d 2 -p cbr -e 24 -c 2 -i 7 -a 2 -x {0.0 4.0 3 ------- null}
h -t 0.9232 -s 0 -d 2 -p cbr -e 24 -c 2 -i 7 -a 2 -x {0.0 4.0 -1 ------- null}
r -t 0.930661333333333 -s 2 -d 3 -p tcp -e 552 -c 1 -i 4 -a 1 -x {1.0 5.0 1 ------- null}
+ -t 0.930661333333333 -s 3 -d 5 -p tcp -e 552 -c 1 -i 4 -a 1 -x {1.0 5.0 1 ------- null}
- -t 0.930661333333333 -s 3 -d 5 -p tcp -e 552 -c 1 -i 4 -a 1 -x {1.0 5.0 1 ------- null}
h -t 0.930661333333333 -s 3 -d 5 -p tcp -e 552 -c 1 -i 4 -a 1 -x {1.0 5.0 -1 ------- null}
r -t 0.9332 -s 0 -d 2 -p cbr -e 1000 -c 2 -i 6 -a 2 -x {0.0 4.0 2 ------- null}
+ -t 0.9332 -s 2 -d 3 -p cbr -e 1000 -c 2 -i 6 -a 2 -x {0.0 4.0 2 ------- null}
- -t 0.9332 -s 2 -d 3 -p cbr -e 1000 -c 2 -i 6 -a 2 -x {0.0 4.0 2 ------- null}
h -t 0.9332 -s 2 -d 3 -p cbr -e 1000 -c 2 -i 6 -a 2 -x {0.0 4.0 -1 ------- null}
r -t 0.933296 -s 0 -d 2 -p cbr -e 24 -c 2 -i 7 -a 2 -x {0.0 4.0 3 ------- null}
+ -t 0.933296 -s 2 -d 3 -p cbr -e 24 -c 2 -i 7 -a 2 -x {0.0 4.0 3 ------- null}
r -t 0.945381333333333 -s 2 -d 3 -p tcp -e 552 -c 1 -i 5 -a 1 -x {1.0 5.0 2 ------- null}
+ -t 0.945381333333333 -s 3 -d 5 -p tcp -e 552 -c 1 -i 5 -a 1 -x {1.0 5.0 2 ------- null}
- -t 0.945381333333333 -s 3 -d 5 -p tcp -e 552 -c 1 -i 5 -a 1 -x {1.0 5.0 2 ------- null}
h -t 0.945381333333333 -s 3 -d 5 -p tcp -e 552 -c 1 -i 5 -a 1 -x {1.0 5.0 -1 ------- null}
- -t 0.959866666666667 -s 2 -d 3 -p cbr -e 24 -c 2 -i 7 -a 2 -x {0.0 4.0 3 ------- null}
h -t 0.959866666666667 -s 2 -d 3 -p cbr -e 24 -c 2 -i 7 -a 2 -x {0.0 4.0 -1 ------- null}
r -t 0.979493333333333 -s 3 -d 5 -p tcp -e 552 -c 1 -i 4 -a 1 -x {1.0 5.0 1 ------- null}
r -t 0.994213333333333 -s 3 -d 5 -p tcp -e 552 -c 1 -i 5 -a 1 -x {1.0 5.0 2 ------- null}
+ -t 0.994213333333333 -s 5 -d 3 -p ack -e 40 -c 1 -i 8 -a 1 -x {5.0 1.0 2 ------- null}
- -t 0.994213333333333 -s 5 -d 3 -p ack -e 40 -c 1 -i 8 -a 1 -x {5.0 1.0 2 ------- null}
h -t 0.994213333333333 -s 5 -d 3 -p ack -e 40 -c 1 -i 8 -a 1 -x {5.0 1.0 -1 ------- null}
r -t 1.03485333333333 -s 5 -d 3 -p ack -e 40 -c 1 -i 8 -a 1 -x {5.0 1.0 2 ------- null}
+ -t 1.03485333333333 -s 3 -d 2 -p ack -e 40 -c 1 -i 8 -a 1 -x {5.0 1.0 2 ------- null}
- -t 1.03485333333333 -s 3 -d 2 -p ack -e 40 -c 1 -i 8 -a 1 -x {5.0 1.0 2 ------- null}
h -t 1.03485333333333 -s 3 -d 2 -p ack -e 40 -c 1 -i 8 -a 1 -x {5.0 1.0 -1 ------- null}
r -t 1.05986666666667 -s 2 -d 3 -p cbr -e 1000 -c 2 -i 6 -a 2 -x {0.0 4.0 2 ------- null}
+ -t 1.05986666666667 -s 3 -d 4 -p cbr -e 1000 -c 2 -i 6 -a 2 -x {0.0 4.0 2 ------- null}
- -t 1.05986666666667 -s 3 -d 4 -p cbr -e 1000 -c 2 -i 6 -a 2 -x {0.0 4.0 2 ------- null}
h -t 1.05986666666667 -s 3 -d 4 -p cbr -e 1000 -c 2 -i 6 -a 2 -x {0.0 4.0 -1 ------- null}
r -t 1.06050666666667 -s 2 -d 3 -p cbr -e 24 -c 2 -i 7 -a 2 -x {0.0 4.0 3 ------- null}
+ -t 1.06050666666667 -s 3 -d 4 -p cbr -e 24 -c 2 -i 7 -a 2 -x {0.0 4.0 3 ------- null}
- -t 1.07586666666667 -s 3 -d 4 -p cbr -e 24 -c 2 -i 7 -a 2 -x {0.0 4.0 3 ------- null}
h -t 1.07586666666667 -s 3 -d 4 -p cbr -e 24 -c 2 -i 7 -a 2 -x {0.0 4.0 -1 ------- null}
r -t 1.11586666666667 -s 3 -d 4 -p cbr -e 1000 -c 2 -i 6 -a 2 -x {0.0 4.0 2 ------- null}
r -t 1.11625066666667 -s 3 -d 4 -p cbr -e 24 -c 2 -i 7 -a 2 -x {0.0 4.0 3 ------- null}
r -t 1.13592 -s 3 -d 2 -p ack -e 40 -c 1 -i 8 -a 1 -x {5.0 1.0 2 ------- null}
+ -t 1.13592 -s 2 -d 1 -p ack -e 40 -c 1 -i 8 -a 1 -x {5.0 1.0 2 ------- null}
- -t 1.13592 -s 2 -d 1 -p ack -e 40 -c 1 -i 8 -a 1 -x {5.0 1.0 2 ------- null}
h -t 1.13592 -s 2 -d 1 -p ack -e 40 -c 1 -i 8 -a 1 -x {5.0 1.0 -1 ------- null}
r -t 1.14608 -s 2 -d 1 -p ack -e 40 -c 1 -i 8 -a 1 -x {5.0 1.0 2 ------- null}
+ -t 1.14608 -s 1 -d 2 -p tcp -e 552 -c 1 -i 9 -a 1 -x {1.0 5.0 3 ------- null}
- -t 1.14608 -s 1 -d 2 -p tcp -e 552 -c 1 -i 9 -a 1 -x {1.0 5.0 3 ------- null}
h -t 1.14608 -s 1 -d 2 -p tcp -e 552 -c 1 -i 9 -a 1 -x {1.0 5.0 -1 ------- null}
+ -t 1.14608 -s 1 -d 2 -p tcp -e 552 -c 1 -i 10 -a 1 -x {1.0 5.0 4 ------- null}
+ -t 1.14608 -s 1 -d 2 -p tcp -e 552 -c 1 -i 11 -a 1 -x {1.0 5.0 5 ------- null}
- -t 1.148288 -s 1 -d 2 -p tcp -e 552 -c 1 -i 10 -a 1 -x {1.0 5.0 4 ------- null}
h -t 1.148288 -s 1 -d 2 -p tcp -e 552 -c 1 -i 10 -a 1 -x {1.0 5.0 -1 ------- null}
- -t 1.150496 -s 1 -d 2 -p tcp -e 552 -c 1 -i 11 -a 1 -x {1.0 5.0 5 ------- null}
h -t 1.150496 -s 1 -d 2 -p tcp -e 552 -c 1 -i 11 -a 1 -x {1.0 5.0 -1 ------- null}
r -t 1.158288 -s 1 -d 2 -p tcp -e 552 -c 1 -i 9 -a 1 -x {1.0 5.0 3 ------- null}
+ -t 1.158288 -s 2 -d 3 -p tcp -e 552 -c 1 -i 9 -a 1 -x {1.0 5.0 3 ------- null}
- -t 1.158288 -s 2 -d 3 -p tcp -e 552 -c 1 -i 9 -a 1 -x {1.0 5.0 3 ------- null}
h -t 1.158288 -s 2 -d 3 -p tcp -e 552 -c 1 -i 9 -a 1 -x {1.0 5.0 -1 ------- null}
r -t 1.160496 -s 1 -d 2 -p tcp -e 552 -c 1 -i 10 -a 1 -x {1.0 5.0 4 ------- null}
+ -t 1.160496 -s 2 -d 3 -p tcp -e 552 -c 1 -i 10 -a 1 -x {1.0 5.0 4 ------- null}
r -t 1.162704 -s 1 -d 2 -p tcp -e 552 -c 1 -i 11 -a 1 -x {1.0 5.0 5 ------- null}
+ -t 1.162704 -s 2 -d 3 -p tcp -e 552 -c 1 -i 11 -a 1 -x {1.0 5.0 5 ------- null}
- -t 1.173008 -s 2 -d 3 -p tcp -e 552 -c 1 -i 10 -a 1 -x {1.0 5.0 4 ------- null}
h -t 1.173008 -s 2 -d 3 -p tcp -e 552 -c 1 -i 10 -a 1 -x {1.0 5.0 -1 ------- null}
- -t 1.187728 -s 2 -d 3 -p tcp -e 552 -c 1 -i 11 -a 1 -x {1.0 5.0 5 ------- null}
h -t 1.187728 -s 2 -d 3 -p tcp -e 552 -c 1 -i 11 -a 1 -x {1.0 5.0 -1 ------- null}
r -t 1.273008 -s 2 -d 3 -p tcp -e 552 -c 1 -i 9 -a 1 -x {1.0 5.0 3 ------- null}
+ -t 1.273008 -s 3 -d 5 -p tcp -e 552 -c 1 -i 9 -a 1 -x {1.0 5.0 3 ------- null}
- -t 1.273008 -s 3 -d 5 -p tcp -e 552 -c 1 -i 9 -a 1 -x {1.0 5.0 3 ------- null}
h -t 1.273008 -s 3 -d 5 -p tcp -e 552 -c 1 -i 9 -a 1 -x {1.0 5.0 -1 ------- null}
r -t 1.287728 -s 2 -d 3 -p tcp -e 552 -c 1 -i 10 -a 1 -x {1.0 5.0 4 ------- null}
+ -t 1.287728 -s 3 -d 5 -p tcp -e 552 -c 1 -i 10 -a 1 -x {1.0 5.0 4 ------- null}
- -t 1.287728 -s 3 -d 5 -p tcp -e 552 -c 1 -i 10 -a 1 -x {1.0 5.0 4 ------- null}
h -t 1.287728 -s 3 -d 5 -p tcp -e 552 -c 1 -i 10 -a 1 -x {1.0 5.0 -1 ------- null}
r -t 1.302448 -s 2 -d 3 -p tcp -e 552 -c 1 -i 11 -a 1 -x {1.0 5.0 5 ------- null}
+ -t 1.302448 -s 3 -d 5 -p tcp -e 552 -c 1 -i 11 -a 1 -x {1.0 5.0 5 ------- null}
- -t 1.302448 -s 3 -d 5 -p tcp -e 552 -c 1 -i 11 -a 1 -x {1.0 5.0 5 ------- null}
h -t 1.302448 -s 3 -d 5 -p tcp -e 552 -c 1 -i 11 -a 1 -x {1.0 5.0 -1 ------- null}
r -t 1.32184 -s 3 -d 5 -p tcp -e 552 -c 1 -i 9 -a 1 -x {1.0 5.0 3 ------- null}
r -t 1.33656 -s 3 -d 5 -p tcp -e 552 -c 1 -i 10 -a 1 -x {1.0 5.0 4 ------- null}
+ -t 1.33656 -s 5 -d 3 -p ack -e 40 -c 1 -i 12 -a 1 -x {5.0 1.0 4 ------- null}
- -t 1.33656 -s 5 -d 3 -p ack -e 40 -c 1 -i 12 -a 1 -x {5.0 1.0 4 ------- null}
h -t 1.33656 -s 5 -d 3 -p ack -e 40 -c 1 -i 12 -a 1 -x {5.0 1.0 -1 ------- null}
r -t 1.35128 -s 3 -d 5 -p tcp -e 552 -c 1 -i 11 -a 1 -x {1.0 5.0 5 ------- null}
r -t 1.3772 -s 5 -d 3 -p ack -e 40 -c 1 -i 12 -a 1 -x {5.0 1.0 4 ------- null}
+ -t 1.3772 -s 3 -d 2 -p ack -e 40 -c 1 -i 12 -a 1 -x {5.0 1.0 4 ------- null}
- -t 1.3772 -s 3 -d 2 -p ack -e 40 -c 1 -i 12 -a 1 -x {5.0 1.0 4 ------- null}
h -t 1.3772 -s 3 -d 2 -p ack -e 40 -c 1 -i 12 -a 1 -x {5.0 1.0 -1 ------- null}
+ -t 1.45128 -s 5 -d 3 -p ack -e 40 -c 1 -i 13 -a 1 -x {5.0 1.0 5 ------- null}
- -t 1.45128 -s 5 -d 3 -p ack -e 40 -c 1 -i 13 -a 1 -x {5.0 1.0 5 ------- null}
h -t 1.45128 -s 5 -d 3 -p ack -e 40 -c 1 -i 13 -a 1 -x {5.0 1.0 -1 ------- null}
r -t 1.47826666666667 -s 3 -d 2 -p ack -e 40 -c 1 -i 12 -a 1 -x {5.0 1.0 4 ------- null}
+ -t 1.47826666666667 -s 2 -d 1 -p ack -e 40 -c 1 -i 12 -a 1 -x {5.0 1.0 4 ------- null}
- -t 1.47826666666667 -s 2 -d 1 -p ack -e 40 -c 1 -i 12 -a 1 -x {5.0 1.0 4 ------- null}
h -t 1.47826666666667 -s 2 -d 1 -p ack -e 40 -c 1 -i 12 -a 1 -x {5.0 1.0 -1 ------- null}
r -t 1.48842666666667 -s 2 -d 1 -p ack -e 40 -c 1 -i 12 -a 1 -x {5.0 1.0 4 ------- null}
+ -t 1.48842666666667 -s 1 -d 2 -p tcp -e 552 -c 1 -i 14 -a 1 -x {1.0 5.0 6 ------- null}
- -t 1.48842666666667 -s 1 -d 2 -p tcp -e 552 -c 1 -i 14 -a 1 -x {1.0 5.0 6 ------- null}
h -t 1.48842666666667 -s 1 -d 2 -p tcp -e 552 -c 1 -i 14 -a 1 -x {1.0 5.0 -1 ------- null}
+ -t 1.48842666666667 -s 1 -d 2 -p tcp -e 552 -c 1 -i 15 -a 1 -x {1.0 5.0 7 ------- null}
+ -t 1.48842666666667 -s 1 -d 2 -p tcp -e 552 -c 1 -i 16 -a 1 -x {1.0 5.0 8 ------- null}
- -t 1.49063466666667 -s 1 -d 2 -p tcp -e 552 -c 1 -i 15 -a 1 -x {1.0 5.0 7 ------- null}
h -t 1.49063466666667 -s 1 -d 2 -p tcp -e 552 -c 1 -i 15 -a 1 -x {1.0 5.0 -1 ------- null}
r -t 1.49192 -s 5 -d 3 -p ack -e 40 -c 1 -i 13 -a 1 -x {5.0 1.0 5 ------- null}
+ -t 1.49192 -s 3 -d 2 -p ack -e 40 -c 1 -i 13 -a 1 -x {5.0 1.0 5 ------- null}
- -t 1.49192 -s 3 -d 2 -p ack -e 40 -c 1 -i 13 -a 1 -x {5.0 1.0 5 ------- null}
h -t 1.49192 -s 3 -d 2 -p ack -e 40 -c 1 -i 13 -a 1 -x {5.0 1.0 -1 ------- null}
- -t 1.49284266666667 -s 1 -d 2 -p tcp -e 552 -c 1 -i 16 -a 1 -x {1.0 5.0 8 ------- null}
h -t 1.49284266666667 -s 1 -d 2 -p tcp -e 552 -c 1 -i 16 -a 1 -x {1.0 5.0 -1 ------- null}
r -t 1.50063466666667 -s 1 -d 2 -p tcp -e 552 -c 1 -i 14 -a 1 -x {1.0 5.0 6 ------- null}
+ -t 1.50063466666667 -s 2 -d 3 -p tcp -e 552 -c 1 -i 14 -a 1 -x {1.0 5.0 6 ------- null}
- -t 1.50063466666667 -s 2 -d 3 -p tcp -e 552 -c 1 -i 14 -a 1 -x {1.0 5.0 6 ------- null}
h -t 1.50063466666667 -s 2 -d 3 -p tcp -e 552 -c 1 -i 14 -a 1 -x {1.0 5.0 -1 ------- null}
r -t 1.50284266666667 -s 1 -d 2 -p tcp -e 552 -c 1 -i 15 -a 1 -x {1.0 5.0 7 ------- null}
+ -t 1.50284266666667 -s 2 -d 3 -p tcp -e 552 -c 1 -i 15 -a 1 -x {1.0 5.0 7 ------- null}
r -t 1.50505066666667 -s 1 -d 2 -p tcp -e 552 -c 1 -i 16 -a 1 -x {1.0 5.0 8 ------- null}
+ -t 1.50505066666667 -s 2 -d 3 -p tcp -e 552 -c 1 -i 16 -a 1 -x {1.0 5.0 8 ------- null}
- -t 1.51535466666667 -s 2 -d 3 -p tcp -e 552 -c 1 -i 15 -a 1 -x {1.0 5.0 7 ------- null}
h -t 1.51535466666667 -s 2 -d 3 -p tcp -e 552 -c 1 -i 15 -a 1 -x {1.0 5.0 -1 ------- null}
- -t 1.53007466666667 -s 2 -d 3 -p tcp -e 552 -c 1 -i 16 -a 1 -x {1.0 5.0 8 ------- null}
h -t 1.53007466666667 -s 2 -d 3 -p tcp -e 552 -c 1 -i 16 -a 1 -x {1.0 5.0 -1 ------- null}
r -t 1.59298666666667 -s 3 -d 2 -p ack -e 40 -c 1 -i 13 -a 1 -x {5.0 1.0 5 ------- null}
+ -t 1.59298666666667 -s 2 -d 1 -p ack -e 40 -c 1 -i 13 -a 1 -x {5.0 1.0 5 ------- null}
- -t 1.59298666666667 -s 2 -d 1 -p ack -e 40 -c 1 -i 13 -a 1 -x {5.0 1.0 5 ------- null}
h -t 1.59298666666667 -s 2 -d 1 -p ack -e 40 -c 1 -i 13 -a 1 -x {5.0 1.0 -1 ------- null}
r -t 1.60314666666667 -s 2 -d 1 -p ack -e 40 -c 1 -i 13 -a 1 -x {5.0 1.0 5 ------- null}
+ -t 1.60314666666667 -s 1 -d 2 -p tcp -e 552 -c 1 -i 17 -a 1 -x {1.0 5.0 9 ------- null}
- -t 1.60314666666667 -s 1 -d 2 -p tcp -e 552 -c 1 -i 17 -a 1 -x {1.0 5.0 9 ------- null}
h -t 1.60314666666667 -s 1 -d 2 -p tcp -e 552 -c 1 -i 17 -a 1 -x {1.0 5.0 -1 ------- null}
+ -t 1.60314666666667 -s 1 -d 2 -p tcp -e 552 -c 1 -i 18 -a 1 -x {1.0 5.0 10 ------- null}
- -t 1.60535466666667 -s 1 -d 2 -p tcp -e 552 -c 1 -i 18 -a 1 -x {1.0 5.0 10 ------- null}
h -t 1.60535466666667 -s 1 -d 2 -p tcp -e 552 -c 1 -i 18 -a 1 -x {1.0 5.0 -1 ------- null}
r -t 1.61535466666667 -s 2 -d 3 -p tcp -e 552 -c 1 -i 14 -a 1 -x {1.0 5.0 6 ------- null}
+ -t 1.61535466666667 -s 3 -d 5 -p tcp -e 552 -c 1 -i 14 -a 1 -x {1.0 5.0 6 ------- null}
- -t 1.61535466666667 -s 3 -d 5 -p tcp -e 552 -c 1 -i 14 -a 1 -x {1.0 5.0 6 ------- null}
h -t 1.61535466666667 -s 3 -d 5 -p tcp -e 552 -c 1 -i 14 -a 1 -x {1.0 5.0 -1 ------- null}
r -t 1.61535466666667 -s 1 -d 2 -p tcp -e 552 -c 1 -i 17 -a 1 -x {1.0 5.0 9 ------- null}
+ -t 1.61535466666667 -s 2 -d 3 -p tcp -e 552 -c 1 -i 17 -a 1 -x {1.0 5.0 9 ------- null}
- -t 1.61535466666667 -s 2 -d 3 -p tcp -e 552 -c 1 -i 17 -a 1 -x {1.0 5.0 9 ------- null}
h -t 1.61535466666667 -s 2 -d 3 -p tcp -e 552 -c 1 -i 17 -a 1 -x {1.0 5.0 -1 ------- null}
r -t 1.61756266666667 -s 1 -d 2 -p tcp -e 552 -c 1 -i 18 -a 1 -x {1.0 5.0 10 ------- null}
+ -t 1.61756266666667 -s 2 -d 3 -p tcp -e 552 -c 1 -i 18 -a 1 -x {1.0 5.0 10 ------- null}
r -t 1.63007466666667 -s 2 -d 3 -p tcp -e 552 -c 1 -i 15 -a 1 -x {1.0 5.0 7 ------- null}
+ -t 1.63007466666667 -s 3 -d 5 -p tcp -e 552 -c 1 -i 15 -a 1 -x {1.0 5.0 7 ------- null}
- -t 1.63007466666667 -s 3 -d 5 -p tcp -e 552 -c 1 -i 15 -a 1 -x {1.0 5.0 7 ------- null}
h -t 1.63007466666667 -s 3 -d 5 -p tcp -e 552 -c 1 -i 15 -a 1 -x {1.0 5.0 -1 ------- null}
- -t 1.63007466666667 -s 2 -d 3 -p tcp -e 552 -c 1 -i 18 -a 1 -x {1.0 5.0 10 ------- null}
h -t 1.63007466666667 -s 2 -d 3 -p tcp -e 552 -c 1 -i 18 -a 1 -x {1.0 5.0 -1 ------- null}
r -t 1.64479466666667 -s 2 -d 3 -p tcp -e 552 -c 1 -i 16 -a 1 -x {1.0 5.0 8 ------- null}
+ -t 1.64479466666667 -s 3 -d 5 -p tcp -e 552 -c 1 -i 16 -a 1 -x {1.0 5.0 8 ------- null}
- -t 1.64479466666667 -s 3 -d 5 -p tcp -e 552 -c 1 -i 16 -a 1 -x {1.0 5.0 8 ------- null}
h -t 1.64479466666667 -s 3 -d 5 -p tcp -e 552 -c 1 -i 16 -a 1 -x {1.0 5.0 -1 ------- null}
r -t 1.66418666666667 -s 3 -d 5 -p tcp -e 552 -c 1 -i 14 -a 1 -x {1.0 5.0 6 ------- null}
r -t 1.67890666666667 -s 3 -d 5 -p tcp -e 552 -c 1 -i 15 -a 1 -x {1.0 5.0 7 ------- null}
+ -t 1.67890666666667 -s 5 -d 3 -p ack -e 40 -c 1 -i 19 -a 1 -x {5.0 1.0 7 ------- null}
- -t 1.67890666666667 -s 5 -d 3 -p ack -e 40 -c 1 -i 19 -a 1 -x {5.0 1.0 7 ------- null}
h -t 1.67890666666667 -s 5 -d 3 -p ack -e 40 -c 1 -i 19 -a 1 -x {5.0 1.0 -1 ------- null}
r -t 1.69362666666667 -s 3 -d 5 -p tcp -e 552 -c 1 -i 16 -a 1 -x {1.0 5.0 8 ------- null}
r -t 1.71954666666667 -s 5 -d 3 -p ack -e 40 -c 1 -i 19 -a 1 -x {5.0 1.0 7 ------- null}
+ -t 1.71954666666667 -s 3 -d 2 -p ack -e 40 -c 1 -i 19 -a 1 -x {5.0 1.0 7 ------- null}
- -t 1.71954666666667 -s 3 -d 2 -p ack -e 40 -c 1 -i 19 -a 1 -x {5.0 1.0 7 ------- null}
h -t 1.71954666666667 -s 3 -d 2 -p ack -e 40 -c 1 -i 19 -a 1 -x {5.0 1.0 -1 ------- null}
r -t 1.73007466666667 -s 2 -d 3 -p tcp -e 552 -c 1 -i 17 -a 1 -x {1.0 5.0 9 ------- null}
+ -t 1.73007466666667 -s 3 -d 5 -p tcp -e 552 -c 1 -i 17 -a 1 -x {1.0 5.0 9 ------- null}
- -t 1.73007466666667 -s 3 -d 5 -p tcp -e 552 -c 1 -i 17 -a 1 -x {1.0 5.0 9 ------- null}
h -t 1.73007466666667 -s 3 -d 5 -p tcp -e 552 -c 1 -i 17 -a 1 -x {1.0 5.0 -1 ------- null}
+ -t 1.7384 -s 0 -d 2 -p cbr -e 1000 -c 2 -i 20 -a 2 -x {0.0 4.0 4 ------- null}
- -t 1.7384 -s 0 -d 2 -p cbr -e 1000 -c 2 -i 20 -a 2 -x {0.0 4.0 4 ------- null}
h -t 1.7384 -s 0 -d 2 -p cbr -e 1000 -c 2 -i 20 -a 2 -x {0.0 4.0 -1 ------- null}
+ -t 1.7384 -s 0 -d 2 -p cbr -e 24 -c 2 -i 21 -a 2 -x {0.0 4.0 5 ------- null}
- -t 1.7424 -s 0 -d 2 -p cbr -e 24 -c 2 -i 21 -a 2 -x {0.0 4.0 5 ------- null}
h -t 1.7424 -s 0 -d 2 -p cbr -e 24 -c 2 -i 21 -a 2 -x {0.0 4.0 -1 ------- null}
r -t 1.74479466666667 -s 2 -d 3 -p tcp -e 552 -c 1 -i 18 -a 1 -x {1.0 5.0 10 ------- null}
+ -t 1.74479466666667 -s 3 -d 5 -p tcp -e 552 -c 1 -i 18 -a 1 -x {1.0 5.0 10 ------- null}
- -t 1.74479466666667 -s 3 -d 5 -p tcp -e 552 -c 1 -i 18 -a 1 -x {1.0 5.0 10 ------- null}
h -t 1.74479466666667 -s 3 -d 5 -p tcp -e 552 -c 1 -i 18 -a 1 -x {1.0 5.0 -1 ------- null}
r -t 1.7524 -s 0 -d 2 -p cbr -e 1000 -c 2 -i 20 -a 2 -x {0.0 4.0 4 ------- null}
+ -t 1.7524 -s 2 -d 3 -p cbr -e 1000 -c 2 -i 20 -a 2 -x {0.0 4.0 4 ------- null}
- -t 1.7524 -s 2 -d 3 -p cbr -e 1000 -c 2 -i 20 -a 2 -x {0.0 4.0 4 ------- null}
h -t 1.7524 -s 2 -d 3 -p cbr -e 1000 -c 2 -i 20 -a 2 -x {0.0 4.0 -1 ------- null}
r -t 1.752496 -s 0 -d 2 -p cbr -e 24 -c 2 -i 21 -a 2 -x {0.0 4.0 5 ------- null}
+ -t 1.752496 -s 2 -d 3 -p cbr -e 24 -c 2 -i 21 -a 2 -x {0.0 4.0 5 ------- null}
r -t 1.77890666666667 -s 3 -d 5 -p tcp -e 552 -c 1 -i 17 -a 1 -x {1.0 5.0 9 ------- null}
+ -t 1.77890666666667 -s 5 -d 3 -p ack -e 40 -c 1 -i 22 -a 1 -x {5.0 1.0 9 ------- null}
- -t 1.77890666666667 -s 5 -d 3 -p ack -e 40 -c 1 -i 22 -a 1 -x {5.0 1.0 9 ------- null}
h -t 1.77890666666667 -s 5 -d 3 -p ack -e 40 -c 1 -i 22 -a 1 -x {5.0 1.0 -1 ------- null}
- -t 1.77906666666667 -s 2 -d 3 -p cbr -e 24 -c 2 -i 21 -a 2 -x {0.0 4.0 5 ------- null}
h -t 1.77906666666667 -s 2 -d 3 -p cbr -e 24 -c 2 -i 21 -a 2 -x {0.0 4.0 -1 ------- null}
r -t 1.79362666666667 -s 3 -d 5 -p tcp -e 552 -c 1 -i 18 -a 1 -x {1.0 5.0 10 ------- null}
r -t 1.81954666666667 -s 5 -d 3 -p ack -e 40 -c 1 -i 22 -a 1 -x {5.0 1.0 9 ------- null}
+ -t 1.81954666666667 -s 3 -d 2 -p ack -e 40 -c 1 -i 22 -a 1 -x {5.0 1.0 9 ------- null}
- -t 1.81954666666667 -s 3 -d 2 -p ack -e 40 -c 1 -i 22 -a 1 -x {5.0 1.0 9 ------- null}
h -t 1.81954666666667 -s 3 -d 2 -p ack -e 40 -c 1 -i 22 -a 1 -x {5.0 1.0 -1 ------- null}
r -t 1.82061333333333 -s 3 -d 2 -p ack -e 40 -c 1 -i 19 -a 1 -x {5.0 1.0 7 ------- null}
+ -t 1.82061333333333 -s 2 -d 1 -p ack -e 40 -c 1 -i 19 -a 1 -x {5.0 1.0 7 ------- null}
- -t 1.82061333333333 -s 2 -d 1 -p ack -e 40 -c 1 -i 19 -a 1 -x {5.0 1.0 7 ------- null}
h -t 1.82061333333333 -s 2 -d 1 -p ack -e 40 -c 1 -i 19 -a 1 -x {5.0 1.0 -1 ------- null}
r -t 1.83077333333333 -s 2 -d 1 -p ack -e 40 -c 1 -i 19 -a 1 -x {5.0 1.0 7 ------- null}
+ -t 1.83077333333333 -s 1 -d 2 -p tcp -e 552 -c 1 -i 23 -a 1 -x {1.0 5.0 11 ------- null}
- -t 1.83077333333333 -s 1 -d 2 -p tcp -e 552 -c 1 -i 23 -a 1 -x {1.0 5.0 11 ------- null}
h -t 1.83077333333333 -s 1 -d 2 -p tcp -e 552 -c 1 -i 23 -a 1 -x {1.0 5.0 -1 ------- null}
+ -t 1.83077333333333 -s 1 -d 2 -p tcp -e 552 -c 1 -i 24 -a 1 -x {1.0 5.0 12 ------- null}
+ -t 1.83077333333333 -s 1 -d 2 -p tcp -e 552 -c 1 -i 25 -a 1 -x {1.0 5.0 13 ------- null}
- -t 1.83298133333333 -s 1 -d 2 -p tcp -e 552 -c 1 -i 24 -a 1 -x {1.0 5.0 12 ------- null}
h -t 1.83298133333333 -s 1 -d 2 -p tcp -e 552 -c 1 -i 24 -a 1 -x {1.0 5.0 -1 ------- null}
- -t 1.83518933333333 -s 1 -d 2 -p tcp -e 552 -c 1 -i 25 -a 1 -x {1.0 5.0 13 ------- null}
h -t 1.83518933333333 -s 1 -d 2 -p tcp -e 552 -c 1 -i 25 -a 1 -x {1.0 5.0 -1 ------- null}
r -t 1.84298133333333 -s 1 -d 2 -p tcp -e 552 -c 1 -i 23 -a 1 -x {1.0 5.0 11 ------- null}
+ -t 1.84298133333333 -s 2 -d 3 -p tcp -e 552 -c 1 -i 23 -a 1 -x {1.0 5.0 11 ------- null}
- -t 1.84298133333333 -s 2 -d 3 -p tcp -e 552 -c 1 -i 23 -a 1 -x {1.0 5.0 11 ------- null}
h -t 1.84298133333333 -s 2 -d 3 -p tcp -e 552 -c 1 -i 23 -a 1 -x {1.0 5.0 -1 ------- null}
r -t 1.84518933333333 -s 1 -d 2 -p tcp -e 552 -c 1 -i 24 -a 1 -x {1.0 5.0 12 ------- null}
+ -t 1.84518933333333 -s 2 -d 3 -p tcp -e 552 -c 1 -i 24 -a 1 -x {1.0 5.0 12 ------- null}
r -t 1.84739733333333 -s 1 -d 2 -p tcp -e 552 -c 1 -i 25 -a 1 -x {1.0 5.0 13 ------- null}
+ -t 1.84739733333333 -s 2 -d 3 -p tcp -e 552 -c 1 -i 25 -a 1 -x {1.0 5.0 13 ------- null}
- -t 1.85770133333333 -s 2 -d 3 -p tcp -e 552 -c 1 -i 24 -a 1 -x {1.0 5.0 12 ------- null}
h -t 1.85770133333333 -s 2 -d 3 -p tcp -e 552 -c 1 -i 24 -a 1 -x {1.0 5.0 -1 ------- null}
- -t 1.87242133333333 -s 2 -d 3 -p tcp -e 552 -c 1 -i 25 -a 1 -x {1.0 5.0 13 ------- null}
h -t 1.87242133333333 -s 2 -d 3 -p tcp -e 552 -c 1 -i 25 -a 1 -x {1.0 5.0 -1 ------- null}
r -t 1.87906666666667 -s 2 -d 3 -p cbr -e 1000 -c 2 -i 20 -a 2 -x {0.0 4.0 4 ------- null}
+ -t 1.87906666666667 -s 3 -d 4 -p cbr -e 1000 -c 2 -i 20 -a 2 -x {0.0 4.0 4 ------- null}
- -t 1.87906666666667 -s 3 -d 4 -p cbr -e 1000 -c 2 -i 20 -a 2 -x {0.0 4.0 4 ------- null}
h -t 1.87906666666667 -s 3 -d 4 -p cbr -e 1000 -c 2 -i 20 -a 2 -x {0.0 4.0 -1 ------- null}
r -t 1.87970666666667 -s 2 -d 3 -p cbr -e 24 -c 2 -i 21 -a 2 -x {0.0 4.0 5 ------- null}
+ -t 1.87970666666667 -s 3 -d 4 -p cbr -e 24 -c 2 -i 21 -a 2 -x {0.0 4.0 5 ------- null}
+ -t 1.89362666666667 -s 5 -d 3 -p ack -e 40 -c 1 -i 26 -a 1 -x {5.0 1.0 10 ------- null}
- -t 1.89362666666667 -s 5 -d 3 -p ack -e 40 -c 1 -i 26 -a 1 -x {5.0 1.0 10 ------- null}
h -t 1.89362666666667 -s 5 -d 3 -p ack -e 40 -c 1 -i 26 -a 1 -x {5.0 1.0 -1 ------- null}
- -t 1.89506666666667 -s 3 -d 4 -p cbr -e 24 -c 2 -i 21 -a 2 -x {0.0 4.0 5 ------- null}
h -t 1.89506666666667 -s 3 -d 4 -p cbr -e 24 -c 2 -i 21 -a 2 -x {0.0 4.0 -1 ------- null}
r -t 1.92061333333333 -s 3 -d 2 -p ack -e 40 -c 1 -i 22 -a 1 -x {5.0 1.0 9 ------- null}
+ -t 1.92061333333333 -s 2 -d 1 -p ack -e 40 -c 1 -i 22 -a 1 -x {5.0 1.0 9 ------- null}
- -t 1.92061333333333 -s 2 -d 1 -p ack -e 40 -c 1 -i 22 -a 1 -x {5.0 1.0 9 ------- null}
h -t 1.92061333333333 -s 2 -d 1 -p ack -e 40 -c 1 -i 22 -a 1 -x {5.0 1.0 -1 ------- null}
r -t 1.93077333333333 -s 2 -d 1 -p ack -e 40 -c 1 -i 22 -a 1 -x {5.0 1.0 9 ------- null}
+ -t 1.93077333333333 -s 1 -d 2 -p tcp -e 552 -c 1 -i 27 -a 1 -x {1.0 5.0 14 ------- null}
- -t 1.93077333333333 -s 1 -d 2 -p tcp -e 552 -c 1 -i 27 -a 1 -x {1.0 5.0 14 ------- null}
h -t 1.93077333333333 -s 1 -d 2 -p tcp -e 552 -c 1 -i 27 -a 1 -x {1.0 5.0 -1 ------- null}
+ -t 1.93077333333333 -s 1 -d 2 -p tcp -e 552 -c 1 -i 28 -a 1 -x {1.0 5.0 15 ------- null}
+ -t 1.93077333333333 -s 1 -d 2 -p tcp -e 552 -c 1 -i 29 -a 1 -x {1.0 5.0 16 ------- null}
- -t 1.93298133333333 -s 1 -d 2 -p tcp -e 552 -c 1 -i 28 -a 1 -x {1.0 5.0 15 ------- null}
h -t 1.93298133333333 -s 1 -d 2 -p tcp -e 552 -c 1 -i 28 -a 1 -x {1.0 5.0 -1 ------- null}
r -t 1.93426666666667 -s 5 -d 3 -p ack -e 40 -c 1 -i 26 -a 1 -x {5.0 1.0 10 ------- null}
+ -t 1.93426666666667 -s 3 -d 2 -p ack -e 40 -c 1 -i 26 -a 1 -x {5.0 1.0 10 ------- null}
- -t 1.93426666666667 -s 3 -d 2 -p ack -e 40 -c 1 -i 26 -a 1 -x {5.0 1.0 10 ------- null}
h -t 1.93426666666667 -s 3 -d 2 -p ack -e 40 -c 1 -i 26 -a 1 -x {5.0 1.0 -1 ------- null}
r -t 1.93506666666667 -s 3 -d 4 -p cbr -e 1000 -c 2 -i 20 -a 2 -x {0.0 4.0 4 ------- null}
- -t 1.93518933333333 -s 1 -d 2 -p tcp -e 552 -c 1 -i 29 -a 1 -x {1.0 5.0 16 ------- null}
h -t 1.93518933333333 -s 1 -d 2 -p tcp -e 552 -c 1 -i 29 -a 1 -x {1.0 5.0 -1 ------- null}
r -t 1.93545066666667 -s 3 -d 4 -p cbr -e 24 -c 2 -i 21 -a 2 -x {0.0 4.0 5 ------- null}
r -t 1.94298133333333 -s 1 -d 2 -p tcp -e 552 -c 1 -i 27 -a 1 -x {1.0 5.0 14 ------- null}
+ -t 1.94298133333333 -s 2 -d 3 -p tcp -e 552 -c 1 -i 27 -a 1 -x {1.0 5.0 14 ------- null}
- -t 1.94298133333333 -s 2 -d 3 -p tcp -e 552 -c 1 -i 27 -a 1 -x {1.0 5.0 14 ------- null}
h -t 1.94298133333333 -s 2 -d 3 -p tcp -e 552 -c 1 -i 27 -a 1 -x {1.0 5.0 -1 ------- null}
r -t 1.94518933333333 -s 1 -d 2 -p tcp -e 552 -c 1 -i 28 -a 1 -x {1.0 5.0 15 ------- null}
+ -t 1.94518933333333 -s 2 -d 3 -p tcp -e 552 -c 1 -i 28 -a 1 -x {1.0 5.0 15 ------- null}
r -t 1.94739733333333 -s 1 -d 2 -p tcp -e 552 -c 1 -i 29 -a 1 -x {1.0 5.0 16 ------- null}
+ -t 1.94739733333333 -s 2 -d 3 -p tcp -e 552 -c 1 -i 29 -a 1 -x {1.0 5.0 16 ------- null}
r -t 1.95770133333333 -s 2 -d 3 -p tcp -e 552 -c 1 -i 23 -a 1 -x {1.0 5.0 11 ------- null}
+ -t 1.95770133333333 -s 3 -d 5 -p tcp -e 552 -c 1 -i 23 -a 1 -x {1.0 5.0 11 ------- null}
- -t 1.95770133333333 -s 3 -d 5 -p tcp -e 552 -c 1 -i 23 -a 1 -x {1.0 5.0 11 ------- null}
h -t 1.95770133333333 -s 3 -d 5 -p tcp -e 552 -c 1 -i 23 -a 1 -x {1.0 5.0 -1 ------- null}
- -t 1.95770133333333 -s 2 -d 3 -p tcp -e 552 -c 1 -i 28 -a 1 -x {1.0 5.0 15 ------- null}
h -t 1.95770133333333 -s 2 -d 3 -p tcp -e 552 -c 1 -i 28 -a 1 -x {1.0 5.0 -1 ------- null}
r -t 1.97242133333333 -s 2 -d 3 -p tcp -e 552 -c 1 -i 24 -a 1 -x {1.0 5.0 12 ------- null}
+ -t 1.97242133333333 -s 3 -d 5 -p tcp -e 552 -c 1 -i 24 -a 1 -x {1.0 5.0 12 ------- null}
- -t 1.97242133333333 -s 3 -d 5 -p tcp -e 552 -c 1 -i 24 -a 1 -x {1.0 5.0 12 ------- null}
h -t 1.97242133333333 -s 3 -d 5 -p tcp -e 552 -c 1 -i 24 -a 1 -x {1.0 5.0 -1 ------- null}
- -t 1.97242133333333 -s 2 -d 3 -p tcp -e 552 -c 1 -i 29 -a 1 -x {1.0 5.0 16 ------- null}
h -t 1.97242133333333 -s 2 -d 3 -p tcp -e 552 -c 1 -i 29 -a 1 -x {1.0 5.0 -1 ------- null}
r -t 1.98714133333333 -s 2 -d 3 -p tcp -e 552 -c 1 -i 25 -a 1 -x {1.0 5.0 13 ------- null}