+ 1 0 2 tcp 40 ------- 2 0.0 4.0 0 6
- 1 0 2 tcp 40 ------- 2 0.0 4.0 0 6
r 1.01016 0 2 tcp 40 ------- 2 0.0 4.0 0 6
+ 1.01016 2 3 tcp 40 ------- 2 0.0 4.0 0 6
- 1.01016 2 3 tcp 40 ------- 2 0.0 4.0 0 6
r 1.111227 2 3 tcp 40 ------- 2 0.0 4.0 0 6
+ 1.111227 3 4 tcp 40 ------- 2 0.0 4.0 0 6
- 1.111227 3 4 tcp 40 ------- 2 0.0 4.0 0 6
r 1.151867 3 4 tcp 40 ------- 2 0.0 4.0 0 6
+ 1.151867 4 3 ack 40 ------- 2 4.0 0.0 0 9
- 1.151867 4 3 ack 40 ------- 2 4.0 0.0 0 9
r 1.192507 4 3 ack 40 ------- 2 4.0 0.0 0 9
+ 1.192507 3 2 ack 40 ------- 2 4.0 0.0 0 9
- 1.192507 3 2 ack 40 ------- 2 4.0 0.0 0 9
r 1.293573 3 2 ack 40 ------- 2 4.0 0.0 0 9
+ 1.293573 2 0 ack 40 ------- 2 4.0 0.0 0 9
- 1.293573 2 0 ack 40 ------- 2 4.0 0.0 0 9
r 1.303733 2 0 ack 40 ------- 2 4.0 0.0 0 9
+ 1.303733 0 2 tcp 552 ------- 2 0.0 4.0 1 10
- 1.303733 0 2 tcp 552 ------- 2 0.0 4.0 1 10
+ 1.303733 0 2 tcp 552 ------- 2 0.0 4.0 2 11
- 1.305941 0 2 tcp 552 ------- 2 0.0 4.0 2 11
r 1.315941 0 2 tcp 552 ------- 2 0.0 4.0 1 10
+ 1.315941 2 3 tcp 552 ------- 2 0.0 4.0 1 10
- 1.315941 2 3 tcp 552 ------- 2 0.0 4.0 1 10
r 1.318149 0 2 tcp 552 ------- 2 0.0 4.0 2 11
+ 1.318149 2 3 tcp 552 ------- 2 0.0 4.0 2 11
- 1.330661 2 3 tcp 552 ------- 2 0.0 4.0 2 11
r 1.430661 2 3 tcp 552 ------- 2 0.0 4.0 1 10
+ 1.430661 3 4 tcp 552 ------- 2 0.0 4.0 1 10
- 1.430661 3 4 tcp 552 ------- 2 0.0 4.0 1 10
r 1.445381 2 3 tcp 552 ------- 2 0.0 4.0 2 11
+ 1.445381 3 4 tcp 552 ------- 2 0.0 4.0 2 11
- 1.445381 3 4 tcp 552 ------- 2 0.0 4.0 2 11
r 1.479493 3 4 tcp 552 ------- 2 0.0 4.0 1 10
r 1.494213 3 4 tcp 552 ------- 2 0.0 4.0 2 11
+ 1.494213 4 3 ack 40 ------- 2 4.0 0.0 2 12
- 1.494213 4 3 ack 40 ------- 2 4.0 0.0 2 12
r 1.534853 4 3 ack 40 ------- 2 4.0 0.0 2 12
+ 1.534853 3 2 ack 40 ------- 2 4.0 0.0 2 12
- 1.534853 3 2 ack 40 ------- 2 4.0 0.0 2 12
r 1.63592 3 2 ack 40 ------- 2 4.0 0.0 2 12
+ 1.63592 2 0 ack 40 ------- 2 4.0 0.0 2 12
- 1.63592 2 0 ack 40 ------- 2 4.0 0.0 2 12
r 1.64608 2 0 ack 40 ------- 2 4.0 0.0 2 12
+ 1.64608 0 2 tcp 552 ------- 2 0.0 4.0 3 13
- 1.64608 0 2 tcp 552 ------- 2 0.0 4.0 3 13
+ 1.64608 0 2 tcp 552 ------- 2 0.0 4.0 4 14
+ 1.64608 0 2 tcp 552 ------- 2 0.0 4.0 5 15
- 1.648288 0 2 tcp 552 ------- 2 0.0 4.0 4 14
- 1.650496 0 2 tcp 552 ------- 2 0.0 4.0 5 15
r 1.658288 0 2 tcp 552 ------- 2 0.0 4.0 3 13
+ 1.658288 2 3 tcp 552 ------- 2 0.0 4.0 3 13
- 1.658288 2 3 tcp 552 ------- 2 0.0 4.0 3 13
r 1.660496 0 2 tcp 552 ------- 2 0.0 4.0 4 14
+ 1.660496 2 3 tcp 552 ------- 2 0.0 4.0 4 14
r 1.662704 0 2 tcp 552 ------- 2 0.0 4.0 5 15
+ 1.662704 2 3 tcp 552 ------- 2 0.0 4.0 5 15
- 1.673008 2 3 tcp 552 ------- 2 0.0 4.0 4 14
- 1.687728 2 3 tcp 552 ------- 2 0.0 4.0 5 15
r 1.773008 2 3 tcp 552 ------- 2 0.0 4.0 3 13
+ 1.773008 3 4 tcp 552 ------- 2 0.0 4.0 3 13
- 1.773008 3 4 tcp 552 ------- 2 0.0 4.0 3 13
r 1.787728 2 3 tcp 552 ------- 2 0.0 4.0 4 14
+ 1.787728 3 4 tcp 552 ------- 2 0.0 4.0 4 14
- 1.787728 3 4 tcp 552 ------- 2 0.0 4.0 4 14
r 1.802448 2 3 tcp 552 ------- 2 0.0 4.0 5 15
+ 1.802448 3 4 tcp 552 ------- 2 0.0 4.0 5 15
- 1.802448 3 4 tcp 552 ------- 2 0.0 4.0 5 15
r 1.82184 3 4 tcp 552 ------- 2 0.0 4.0 3 13
r 1.83656 3 4 tcp 552 ------- 2 0.0 4.0 4 14
+ 1.83656 4 3 ack 40 ------- 2 4.0 0.0 4 18
- 1.83656 4 3 ack 40 ------- 2 4.0 0.0 4 18
r 1.85128 3 4 tcp 552 ------- 2 0.0 4.0 5 15
r 1.8772 4 3 ack 40 ------- 2 4.0 0.0 4 18
+ 1.8772 3 2 ack 40 ------- 2 4.0 0.0 4 18
- 1.8772 3 2 ack 40 ------- 2 4.0 0.0 4 18
+ 1.95128 4 3 ack 40 ------- 2 4.0 0.0 5 21
- 1.95128 4 3 ack 40 ------- 2 4.0 0.0 5 21
r 1.978267 3 2 ack 40 ------- 2 4.0 0.0 4 18
+ 1.978267 2 0 ack 40 ------- 2 4.0 0.0 4 18
- 1.978267 2 0 ack 40 ------- 2 4.0 0.0 4 18
r 1.988427 2 0 ack 40 ------- 2 4.0 0.0 4 18
+ 1.988427 0 2 tcp 552 ------- 2 0.0 4.0 6 22
- 1.988427 0 2 tcp 552 ------- 2 0.0 4.0 6 22
+ 1.988427 0 2 tcp 552 ------- 2 0.0 4.0 7 23
+ 1.988427 0 2 tcp 552 ------- 2 0.0 4.0 8 24
- 1.990635 0 2 tcp 552 ------- 2 0.0 4.0 7 23
r 1.99192 4 3 ack 40 ------- 2 4.0 0.0 5 21
+ 1.99192 3 2 ack 40 ------- 2 4.0 0.0 5 21
- 1.99192 3 2 ack 40 ------- 2 4.0 0.0 5 21
- 1.992843 0 2 tcp 552 ------- 2 0.0 4.0 8 24
r 2.000635 0 2 tcp 552 ------- 2 0.0 4.0 6 22
+ 2.000635 2 3 tcp 552 ------- 2 0.0 4.0 6 22
- 2.000635 2 3 tcp 552 ------- 2 0.0 4.0 6 22
r 2.002843 0 2 tcp 552 ------- 2 0.0 4.0 7 23
+ 2.002843 2 3 tcp 552 ------- 2 0.0 4.0 7 23
r 2.005051 0 2 tcp 552 ------- 2 0.0 4.0 8 24
+ 2.005051 2 3 tcp 552 ------- 2 0.0 4.0 8 24
- 2.015355 2 3 tcp 552 ------- 2 0.0 4.0 7 23
- 2.030075 2 3 tcp 552 ------- 2 0.0 4.0 8 24
r 2.092987 3 2 ack 40 ------- 2 4.0 0.0 5 21
+ 2.092987 2 0 ack 40 ------- 2 4.0 0.0 5 21
- 2.092987 2 0 ack 40 ------- 2 4.0 0.0 5 21
r 2.103147 2 0 ack 40 ------- 2 4.0 0.0 5 21
+ 2.103147 0 2 tcp 552 ------- 2 0.0 4.0 9 25
- 2.103147 0 2 tcp 552 ------- 2 0.0 4.0 9 25
+ 2.103147 0 2 tcp 552 ------- 2 0.0 4.0 10 26
- 2.105355 0 2 tcp 552 ------- 2 0.0 4.0 10 26
r 2.115355 2 3 tcp 552 ------- 2 0.0 4.0 6 22
+ 2.115355 3 4 tcp 552 ------- 2 0.0 4.0 6 22
- 2.115355 3 4 tcp 552 ------- 2 0.0 4.0 6 22
r 2.115355 0 2 tcp 552 ------- 2 0.0 4.0 9 25
+ 2.115355 2 3 tcp 552 ------- 2 0.0 4.0 9 25
- 2.115355 2 3 tcp 552 ------- 2 0.0 4.0 9 25
r 2.117563 0 2 tcp 552 ------- 2 0.0 4.0 10 26
+ 2.117563 2 3 tcp 552 ------- 2 0.0 4.0 10 26
r 2.130075 2 3 tcp 552 ------- 2 0.0 4.0 7 23
+ 2.130075 3 4 tcp 552 ------- 2 0.0 4.0 7 23
- 2.130075 3 4 tcp 552 ------- 2 0.0 4.0 7 23
- 2.130075 2 3 tcp 552 ------- 2 0.0 4.0 10 26
r 2.144795 2 3 tcp 552 ------- 2 0.0 4.0 8 24
+ 2.144795 3 4 tcp 552 ------- 2 0.0 4.0 8 24
- 2.144795 3 4 tcp 552 ------- 2 0.0 4.0 8 24
r 2.164187 3 4 tcp 552 ------- 2 0.0 4.0 6 22
r 2.178907 3 4 tcp 552 ------- 2 0.0 4.0 7 23
+ 2.178907 4 3 ack 40 ------- 2 4.0 0.0 7 27
- 2.178907 4 3 ack 40 ------- 2 4.0 0.0 7 27
r 2.193627 3 4 tcp 552 ------- 2 0.0 4.0 8 24
r 2.219547 4 3 ack 40 ------- 2 4.0 0.0 7 27
+ 2.219547 3 2 ack 40 ------- 2 4.0 0.0 7 27
- 2.219547 3 2 ack 40 ------- 2 4.0 0.0 7 27
r 2.230075 2 3 tcp 552 ------- 2 0.0 4.0 9 25
+ 2.230075 3 4 tcp 552 ------- 2 0.0 4.0 9 25
- 2.230075 3 4 tcp 552 ------- 2 0.0 4.0 9 25
r 2.244795 2 3 tcp 552 ------- 2 0.0 4.0 10 26
+ 2.244795 3 4 tcp 552 ------- 2 0.0 4.0 10 26
- 2.244795 3 4 tcp 552 ------- 2 0.0 4.0 10 26
r 2.278907 3 4 tcp 552 ------- 2 0.0 4.0 9 25
+ 2.278907 4 3 ack 40 ------- 2 4.0 0.0 9 28
- 2.278907 4 3 ack 40 ------- 2 4.0 0.0 9 28
r 2.293627 3 4 tcp 552 ------- 2 0.0 4.0 10 26
r 2.319547 4 3 ack 40 ------- 2 4.0 0.0 9 28
+ 2.319547 3 2 ack 40 ------- 2 4.0 0.0 9 28
- 2.319547 3 2 ack 40 ------- 2 4.0 0.0 9 28
r 2.320613 3 2 ack 40 ------- 2 4.0 0.0 7 27
+ 2.320613 2 0 ack 40 ------- 2 4.0 0.0 7 27
- 2.320613 2 0 ack 40 ------- 2 4.0 0.0 7 27
r 2.330773 2 0 ack 40 ------- 2 4.0 0.0 7 27
+ 2.330773 0 2 tcp 552 ------- 2 0.0 4.0 11 29
- 2.330773 0 2 tcp 552 ------- 2 0.0 4.0 11 29
+ 2.330773 0 2 tcp 552 ------- 2 0.0 4.0 12 30
+ 2.330773 0 2 tcp 552 ------- 2 0.0 4.0 13 31
- 2.332981 0 2 tcp 552 ------- 2 0.0 4.0 12 30
- 2.335189 0 2 tcp 552 ------- 2 0.0 4.0 13 31
r 2.342981 0 2 tcp 552 ------- 2 0.0 4.0 11 29
+ 2.342981 2 3 tcp 552 ------- 2 0.0 4.0 11 29
- 2.342981 2 3 tcp 552 ------- 2 0.0 4.0 11 29
r 2.345189 0 2 tcp 552 ------- 2 0.0 4.0 12 30
+ 2.345189 2 3 tcp 552 ------- 2 0.0 4.0 12 30
r 2.347397 0 2 tcp 552 ------- 2 0.0 4.0 13 31
+ 2.347397 2 3 tcp 552 ------- 2 0.0 4.0 13 31
- 2.357701 2 3 tcp 552 ------- 2 0.0 4.0 12 30
- 2.372421 2 3 tcp 552 ------- 2 0.0 4.0 13 31
+ 2.393627 4 3 ack 40 ------- 2 4.0 0.0 10 32
- 2.393627 4 3 ack 40 ------- 2 4.0 0.0 10 32
r 2.420613 3 2 ack 40 ------- 2 4.0 0.0 9 28
+ 2.420613 2 0 ack 40 ------- 2 4.0 0.0 9 28
- 2.420613 2 0 ack 40 ------- 2 4.0 0.0 9 28
r 2.430773 2 0 ack 40 ------- 2 4.0 0.0 9 28
+ 2.430773 0 2 tcp 552 ------- 2 0.0 4.0 14 33
- 2.430773 0 2 tcp 552 ------- 2 0.0 4.0 14 33
+ 2.430773 0 2 tcp 552 ------- 2 0.0 4.0 15 34
+ 2.430773 0 2 tcp 552 ------- 2 0.0 4.0 16 35
- 2.432981 0 2 tcp 552 ------- 2 0.0 4.0 15 34
r 2.434267 4 3 ack 40 ------- 2 4.0 0.0 10 32
+ 2.434267 3 2 ack 40 ------- 2 4.0 0.0 10 32
- 2.434267 3 2 ack 40 ------- 2 4.0 0.0 10 32
- 2.435189 0 2 tcp 552 ------- 2 0.0 4.0 16 35
r 2.442981 0 2 tcp 552 ------- 2 0.0 4.0 14 33
+ 2.442981 2 3 tcp 552 ------- 2 0.0 4.0 14 33
- 2.442981 2 3 tcp 552 ------- 2 0.0 4.0 14 33
r 2.445189 0 2 tcp 552 ------- 2 0.0 4.0 15 34
+ 2.445189 2 3 tcp 552 ------- 2 0.0 4.0 15 34
r 2.447397 0 2 tcp 552 ------- 2 0.0 4.0 16 35
+ 2.447397 2 3 tcp 552 ------- 2 0.0 4.0 16 35
r 2.457701 2 3 tcp 552 ------- 2 0.0 4.0 11 29
+ 2.457701 3 4 tcp 552 ------- 2 0.0 4.0 11 29
- 2.457701 3 4 tcp 552 ------- 2 0.0 4.0 11 29
- 2.457701 2 3 tcp 552 ------- 2 0.0 4.0 15 34
r 2.472421 2 3 tcp 552 ------- 2 0.0 4.0 12 30
+ 2.472421 3 4 tcp 552 ------- 2 0.0 4.0 12 30
- 2.472421 3 4 tcp 552 ------- 2 0.0 4.0 12 30
- 2.472421 2 3 tcp 552 ------- 2 0.0 4.0 16 35
r 2.487141 2 3 tcp 552 ------- 2 0.0 4.0 13 31
+ 2.487141 3 4 tcp 552 ------- 2 0.0 4.0 13 31
- 2.487141 3 4 tcp 552 ------- 2 0.0 4.0 13 31
r 2.506533 3 4 tcp 552 ------- 2 0.0 4.0 11 29
r 2.521253 3 4 tcp 552 ------- 2 0.0 4.0 12 30
+ 2.521253 4 3 ack 40 ------- 2 4.0 0.0 12 36
- 2.521253 4 3 ack 40 ------- 2 4.0 0.0 12 36
r 2.535333 3 2 ack 40 ------- 2 4.0 0.0 10 32
+ 2.535333 2 0 ack 40 ------- 2 4.0 0.0 10 32
- 2.535333 2 0 ack 40 ------- 2 4.0 0.0 10 32
r 2.535973 3 4 tcp 552 ------- 2 0.0 4.0 13 31
r 2.545493 2 0 ack 40 ------- 2 4.0 0.0 10 32
+ 2.545493 0 2 tcp 552 ------- 2 0.0 4.0 17 37
- 2.545493 0 2 tcp 552 ------- 2 0.0 4.0 17 37
+ 2.545493 0 2 tcp 552 ------- 2 0.0 4.0 18 38
- 2.547701 0 2 tcp 552 ------- 2 0.0 4.0 18 38
r 2.557701 2 3 tcp 552 ------- 2 0.0 4.0 14 33
+ 2.557701 3 4 tcp 552 ------- 2 0.0 4.0 14 33
- 2.557701 3 4 tcp 552 ------- 2 0.0 4.0 14 33
r 2.557701 0 2 tcp 552 ------- 2 0.0 4.0 17 37
+ 2.557701 2 3 tcp 552 ------- 2 0.0 4.0 17 37
- 2.557701 2 3 tcp 552 ------- 2 0.0 4.0 17 37
r 2.559909 0 2 tcp 552 ------- 2 0.0 4.0 18 38
+ 2.559909 2 3 tcp 552 ------- 2 0.0 4.0 18 38
r 2.561893 4 3 ack 40 ------- 2 4.0 0.0 12 36
+ 2.561893 3 2 ack 40 ------- 2 4.0 0.0 12 36
- 2.561893 3 2 ack 40 ------- 2 4.0 0.0 12 36
r 2.572421 2 3 tcp 552 ------- 2 0.0 4.0 15 34
+ 2.572421 3 4 tcp 552 ------- 2 0.0 4.0 15 34
- 2.572421 3 4 tcp 552 ------- 2 0.0 4.0 15 34
- 2.572421 2 3 tcp 552 ------- 2 0.0 4.0 18 38
r 2.587141 2 3 tcp 552 ------- 2 0.0 4.0 16 35
+ 2.587141 3 4 tcp 552 ------- 2 0.0 4.0 16 35
- 2.587141 3 4 tcp 552 ------- 2 0.0 4.0 16 35
r 2.606533 3 4 tcp 552 ------- 2 0.0 4.0 14 33
+ 2.606533 4 3 ack 40 ------- 2 4.0 0.0 14 41
- 2.606533 4 3 ack 40 ------- 2 4.0 0.0 14 41
r 2.621253 3 4 tcp 552 ------- 2 0.0 4.0 15 34
r 2.635973 3 4 tcp 552 ------- 2 0.0 4.0 16 35
+ 2.635973 4 3 ack 40 ------- 2 4.0 0.0 16 42
- 2.635973 4 3 ack 40 ------- 2 4.0 0.0 16 42
r 2.647173 4 3 ack 40 ------- 2 4.0 0.0 14 41
+ 2.647173 3 2 ack 40 ------- 2 4.0 0.0 14 41
- 2.647173 3 2 ack 40 ------- 2 4.0 0.0 14 41
r 2.66296 3 2 ack 40 ------- 2 4.0 0.0 12 36
+ 2.66296 2 0 ack 40 ------- 2 4.0 0.0 12 36
- 2.66296 2 0 ack 40 ------- 2 4.0 0.0 12 36
r 2.672421 2 3 tcp 552 ------- 2 0.0 4.0 17 37
+ 2.672421 3 4 tcp 552 ------- 2 0.0 4.0 17 37
- 2.672421 3 4 tcp 552 ------- 2 0.0 4.0 17 37
r 2.67312 2 0 ack 40 ------- 2 4.0 0.0 12 36
+ 2.67312 0 2 tcp 552 ------- 2 0.0 4.0 19 45
- 2.67312 0 2 tcp 552 ------- 2 0.0 4.0 19 45
+ 2.67312 0 2 tcp 552 ------- 2 0.0 4.0 20 46
+ 2.67312 0 2 tcp 552 ------- 2 0.0 4.0 21 47
- 2.675328 0 2 tcp 552 ------- 2 0.0 4.0 20 46
r 2.676613 4 3 ack 40 ------- 2 4.0 0.0 16 42
+ 2.676613 3 2 ack 40 ------- 2 4.0 0.0 16 42
- 2.676613 3 2 ack 40 ------- 2 4.0 0.0 16 42
- 2.677536 0 2 tcp 552 ------- 2 0.0 4.0 21 47
r 2.685328 0 2 tcp 552 ------- 2 0.0 4.0 19 45
+ 2.685328 2 3 tcp 552 ------- 2 0.0 4.0 19 45
- 2.685328 2 3 tcp 552 ------- 2 0.0 4.0 19 45
r 2.687141 2 3 tcp 552 ------- 2 0.0 4.0 18 38
+ 2.687141 3 4 tcp 552 ------- 2 0.0 4.0 18 38
- 2.687141 3 4 tcp 552 ------- 2 0.0 4.0 18 38
r 2.687536 0 2 tcp 552 ------- 2 0.0 4.0 20 46
+ 2.687536 2 3 tcp 552 ------- 2 0.0 4.0 20 46
r 2.689744 0 2 tcp 552 ------- 2 0.0 4.0 21 47
+ 2.689744 2 3 tcp 552 ------- 2 0.0 4.0 21 47
- 2.700048 2 3 tcp 552 ------- 2 0.0 4.0 20 46
- 2.714768 2 3 tcp 552 ------- 2 0.0 4.0 21 47
r 2.721253 3 4 tcp 552 ------- 2 0.0 4.0 17 37
r 2.735973 3 4 tcp 552 ------- 2 0.0 4.0 18 38
+ 2.735973 4 3 ack 40 ------- 2 4.0 0.0 18 48
- 2.735973 4 3 ack 40 ------- 2 4.0 0.0 18 48
r 2.74824 3 2 ack 40 ------- 2 4.0 0.0 14 41
+ 2.74824 2 0 ack 40 ------- 2 4.0 0.0 14 41
- 2.74824 2 0 ack 40 ------- 2 4.0 0.0 14 41
r 2.7584 2 0 ack 40 ------- 2 4.0 0.0 14 41
+ 2.7584 0 2 tcp 552 ------- 2 0.0 4.0 22 49
- 2.7584 0 2 tcp 552 ------- 2 0.0 4.0 22 49
+ 2.7584 0 2 tcp 552 ------- 2 0.0 4.0 23 50
+ 2.7584 0 2 tcp 552 ------- 2 0.0 4.0 24 51
- 2.760608 0 2 tcp 552 ------- 2 0.0 4.0 23 50
- 2.762816 0 2 tcp 552 ------- 2 0.0 4.0 24 51
r 2.770608 0 2 tcp 552 ------- 2 0.0 4.0 22 49
+ 2.770608 2 3 tcp 552 ------- 2 0.0 4.0 22 49
- 2.770608 2 3 tcp 552 ------- 2 0.0 4.0 22 49
r 2.772816 0 2 tcp 552 ------- 2 0.0 4.0 23 50
+ 2.772816 2 3 tcp 552 ------- 2 0.0 4.0 23 50
r 2.775024 0 2 tcp 552 ------- 2 0.0 4.0 24 51
+ 2.775024 2 3 tcp 552 ------- 2 0.0 4.0 24 51
r 2.776613 4 3 ack 40 ------- 2 4.0 0.0 18 48
+ 2.776613 3 2 ack 40 ------- 2 4.0 0.0 18 48
- 2.776613 3 2 ack 40 ------- 2 4.0 0.0 18 48
r 2.77768 3 2 ack 40 ------- 2 4.0 0.0 16 42
+ 2.77768 2 0 ack 40 ------- 2 4.0 0.0 16 42
- 2.77768 2 0 ack 40 ------- 2 4.0 0.0 16 42
- 2.785328 2 3 tcp 552 ------- 2 0.0 4.0 23 50
r 2.78784 2 0 ack 40 ------- 2 4.0 0.0 16 42
+ 2.78784 0 2 tcp 552 ------- 2 0.0 4.0 25 52
- 2.78784 0 2 tcp 552 ------- 2 0.0 4.0 25 52
+ 2.78784 0 2 tcp 552 ------- 2 0.0 4.0 26 53
+ 2.78784 0 2 tcp 552 ------- 2 0.0 4.0 27 54
- 2.790048 0 2 tcp 552 ------- 2 0.0 4.0 26 53
- 2.792256 0 2 tcp 552 ------- 2 0.0 4.0 27 54
r 2.800048 2 3 tcp 552 ------- 2 0.0 4.0 19 45
+ 2.800048 3 4 tcp 552 ------- 2 0.0 4.0 19 45
- 2.800048 3 4 tcp 552 ------- 2 0.0 4.0 19 45
- 2.800048 2 3 tcp 552 ------- 2 0.0 4.0 24 51
r 2.800048 0 2 tcp 552 ------- 2 0.0 4.0 25 52
+ 2.800048 2 3 tcp 552 ------- 2 0.0 4.0 25 52
r 2.802256 0 2 tcp 552 ------- 2 0.0 4.0 26 53
+ 2.802256 2 3 tcp 552 ------- 2 0.0 4.0 26 53
r 2.804464 0 2 tcp 552 ------- 2 0.0 4.0 27 54
+ 2.804464 2 3 tcp 552 ------- 2 0.0 4.0 27 54
r 2.814768 2 3 tcp 552 ------- 2 0.0 4.0 20 46
+ 2.814768 3 4 tcp 552 ------- 2 0.0 4.0 20 46
- 2.814768 3 4 tcp 552 ------- 2 0.0 4.0 20 46
- 2.814768 2 3 tcp 552 ------- 2 0.0 4.0 25 52
r 2.829488 2 3 tcp 552 ------- 2 0.0 4.0 21 47
+ 2.829488 3 4 tcp 552 ------- 2 0.0 4.0 21 47
- 2.829488 3 4 tcp 552 ------- 2 0.0 4.0 21 47
- 2.829488 2 3 tcp 552 ------- 2 0.0 4.0 26 53
- 2.844208 2 3 tcp 552 ------- 2 0.0 4.0 27 54
r 2.84888 3 4 tcp 552 ------- 2 0.0 4.0 19 45
r 2.8636 3 4 tcp 552 ------- 2 0.0 4.0 20 46
+ 2.8636 4 3 ack 40 ------- 2 4.0 0.0 20 55
- 2.8636 4 3 ack 40 ------- 2 4.0 0.0 20 55
r 2.87768 3 2 ack 40 ------- 2 4.0 0.0 18 48
+ 2.87768 2 0 ack 40 ------- 2 4.0 0.0 18 48
- 2.87768 2 0 ack 40 ------- 2 4.0 0.0 18 48
r 2.87832 3 4 tcp 552 ------- 2 0.0 4.0 21 47
r 2.885328 2 3 tcp 552 ------- 2 0.0 4.0 22 49
+ 2.885328 3 4 tcp 552 ------- 2 0.0 4.0 22 49
- 2.885328 3 4 tcp 552 ------- 2 0.0 4.0 22 49
r 2.88784 2 0 ack 40 ------- 2 4.0 0.0 18 48
+ 2.88784 0 2 tcp 552 ------- 2 0.0 4.0 28 56
- 2.88784 0 2 tcp 552 ------- 2 0.0 4.0 28 56
+ 2.88784 0 2 tcp 552 ------- 2 0.0 4.0 29 57
+ 2.88784 0 2 tcp 552 ------- 2 0.0 4.0 30 58
- 2.890048 0 2 tcp 552 ------- 2 0.0 4.0 29 57
- 2.892256 0 2 tcp 552 ------- 2 0.0 4.0 30 58
r 2.900048 2 3 tcp 552 ------- 2 0.0 4.0 23 50
+ 2.900048 3 4 tcp 552 ------- 2 0.0 4.0 23 50
- 2.900048 3 4 tcp 552 ------- 2 0.0 4.0 23 50
r 2.900048 0 2 tcp 552 ------- 2 0.0 4.0 28 56
+ 2.900048 2 3 tcp 552 ------- 2 0.0 4.0 28 56
- 2.900048 2 3 tcp 552 ------- 2 0.0 4.0 28 56
r 2.902256 0 2 tcp 552 ------- 2 0.0 4.0 29 57
+ 2.902256 2 3 tcp 552 ------- 2 0.0 4.0 29 57
r 2.90424 4 3 ack 40 ------- 2 4.0 0.0 20 55
+ 2.90424 3 2 ack 40 ------- 2 4.0 0.0 20 55
- 2.90424 3 2 ack 40 ------- 2 4.0 0.0 20 55
r 2.904464 0 2 tcp 552 ------- 2 0.0 4.0 30 58
+ 2.904464 2 3 tcp 552 ------- 2 0.0 4.0 30 58
r 2.914768 2 3 tcp 552 ------- 2 0.0 4.0 24 51
+ 2.914768 3 4 tcp 552 ------- 2 0.0 4.0 24 51
- 2.914768 3 4 tcp 552 ------- 2 0.0 4.0 24 51
- 2.914768 2 3 tcp 552 ------- 2 0.0 4.0 29 57
r 2.929488 2 3 tcp 552 ------- 2 0.0 4.0 25 52
+ 2.929488 3 4 tcp 552 ------- 2 0.0 4.0 25 52
- 2.929488 3 4 tcp 552 ------- 2 0.0 4.0 25 52
- 2.929488 2 3 tcp 552 ------- 2 0.0 4.0 30 58
r 2.93416 3 4 tcp 552 ------- 2 0.0 4.0 22 49
+ 2.93416 4 3 ack 40 ------- 2 4.0 0.0 22 59
- 2.93416 4 3 ack 40 ------- 2 4.0 0.0 22 59
r 2.944208 2 3 tcp 552 ------- 2 0.0 4.0 26 53
+ 2.944208 3 4 tcp 552 ------- 2 0.0 4.0 26 53
- 2.944208 3 4 tcp 552 ------- 2 0.0 4.0 26 53
r 2.94888 3 4 tcp 552 ------- 2 0.0 4.0 23 50
r 2.958928 2 3 tcp 552 ------- 2 0.0 4.0 27 54
+ 2.958928 3 4 tcp 552 ------- 2 0.0 4.0 27 54
- 2.958928 3 4 tcp 552 ------- 2 0.0 4.0 27 54
r 2.9636 3 4 tcp 552 ------- 2 0.0 4.0 24 51
+ 2.9636 4 3 ack 40 ------- 2 4.0 0.0 24 60
- 2.9636 4 3 ack 40 ------- 2 4.0 0.0 24 60
r 2.9748 4 3 ack 40 ------- 2 4.0 0.0 22 59
+ 2.9748 3 2 ack 40 ------- 2 4.0 0.0 22 59
- 2.9748 3 2 ack 40 ------- 2 4.0 0.0 22 59
r 2.97832 3 4 tcp 552 ------- 2 0.0 4.0 25 52
r 2.99304 3 4 tcp 552 ------- 2 0.0 4.0 26 53
+ 2.99304 4 3 ack 40 ------- 2 4.0 0.0 26 61
- 2.99304 4 3 ack 40 ------- 2 4.0 0.0 26 61
r 3.00424 4 3 ack 40 ------- 2 4.0 0.0 24 60
+ 3.00424 3 2 ack 40 ------- 2 4.0 0.0 24 60
- 3.00424 3 2 ack 40 ------- 2 4.0 0.0 24 60
r 3.005307 3 2 ack 40 ------- 2 4.0 0.0 20 55
+ 3.005307 2 0 ack 40 ------- 2 4.0 0.0 20 55
- 3.005307 2 0 ack 40 ------- 2 4.0 0.0 20 55
r 3.00776 3 4 tcp 552 ------- 2 0.0 4.0 27 54
r 3.014768 2 3 tcp 552 ------- 2 0.0 4.0 28 56
+ 3.014768 3 4 tcp 552 ------- 2 0.0 4.0 28 56
- 3.014768 3 4 tcp 552 ------- 2 0.0 4.0 28 56
r 3.015467 2 0 ack 40 ------- 2 4.0 0.0 20 55
+ 3.015467 0 2 tcp 552 ------- 2 0.0 4.0 31 62
- 3.015467 0 2 tcp 552 ------- 2 0.0 4.0 31 62
+ 3.015467 0 2 tcp 552 ------- 2 0.0 4.0 32 63
+ 3.015467 0 2 tcp 552 ------- 2 0.0 4.0 33 64
- 3.017675 0 2 tcp 552 ------- 2 0.0 4.0 32 63
- 3.019883 0 2 tcp 552 ------- 2 0.0 4.0 33 64
r 3.027675 0 2 tcp 552 ------- 2 0.0 4.0 31 62
+ 3.027675 2 3 tcp 552 ------- 2 0.0 4.0 31 62
- 3.027675 2 3 tcp 552 ------- 2 0.0 4.0 31 62
r 3.029488 2 3 tcp 552 ------- 2 0.0 4.0 29 57
+ 3.029488 3 4 tcp 552 ------- 2 0.0 4.0 29 57
- 3.029488 3 4 tcp 552 ------- 2 0.0 4.0 29 57
r 3.029883 0 2 tcp 552 ------- 2 0.0 4.0 32 63
+ 3.029883 2 3 tcp 552 ------- 2 0.0 4.0 32 63
r 3.032091 0 2 tcp 552 ------- 2 0.0 4.0 33 64
+ 3.032091 2 3 tcp 552 ------- 2 0.0 4.0 33 64
r 3.03368 4 3 ack 40 ------- 2 4.0 0.0 26 61
+ 3.03368 3 2 ack 40 ------- 2 4.0 0.0 26 61
- 3.03368 3 2 ack 40 ------- 2 4.0 0.0 26 61
- 3.042395 2 3 tcp 552 ------- 2 0.0 4.0 32 63
r 3.044208 2 3 tcp 552 ------- 2 0.0 4.0 30 58
+ 3.044208 3 4 tcp 552 ------- 2 0.0 4.0 30 58
- 3.044208 3 4 tcp 552 ------- 2 0.0 4.0 30 58
- 3.057115 2 3 tcp 552 ------- 2 0.0 4.0 33 64
r 3.0636 3 4 tcp 552 ------- 2 0.0 4.0 28 56
+ 3.0636 4 3 ack 40 ------- 2 4.0 0.0 28 65
- 3.0636 4 3 ack 40 ------- 2 4.0 0.0 28 65
r 3.075867 3 2 ack 40 ------- 2 4.0 0.0 22 59
+ 3.075867 2 0 ack 40 ------- 2 4.0 0.0 22 59
- 3.075867 2 0 ack 40 ------- 2 4.0 0.0 22 59
r 3.07832 3 4 tcp 552 ------- 2 0.0 4.0 29 57
r 3.086027 2 0 ack 40 ------- 2 4.0 0.0 22 59
+ 3.086027 0 2 tcp 552 ------- 2 0.0 4.0 34 66
- 3.086027 0 2 tcp 552 ------- 2 0.0 4.0 34 66
+ 3.086027 0 2 tcp 552 ------- 2 0.0 4.0 35 67
+ 3.086027 0 2 tcp 552 ------- 2 0.0 4.0 36 68
- 3.088235 0 2 tcp 552 ------- 2 0.0 4.0 35 67
- 3.090443 0 2 tcp 552 ------- 2 0.0 4.0 36 68
r 3.09304 3 4 tcp 552 ------- 2 0.0 4.0 30 58
+ 3.09304 4 3 ack 40 ------- 2 4.0 0.0 30 69
- 3.09304 4 3 ack 40 ------- 2 4.0 0.0 30 69
r 3.098235 0 2 tcp 552 ------- 2 0.0 4.0 34 66
+ 3.098235 2 3 tcp 552 ------- 2 0.0 4.0 34 66
- 3.098235 2 3 tcp 552 ------- 2 0.0 4.0 34 66
r 3.100443 0 2 tcp 552 ------- 2 0.0 4.0 35 67
+ 3.100443 2 3 tcp 552 ------- 2 0.0 4.0 35 67
r 3.102651 0 2 tcp 552 ------- 2 0.0 4.0 36 68
+ 3.102651 2 3 tcp 552 ------- 2 0.0 4.0 36 68
r 3.10424 4 3 ack 40 ------- 2 4.0 0.0 28 65
+ 3.10424 3 2 ack 40 ------- 2 4.0 0.0 28 65
- 3.10424 3 2 ack 40 ------- 2 4.0 0.0 28 65
r 3.105307 3 2 ack 40 ------- 2 4.0 0.0 24 60
+ 3.105307 2 0 ack 40 ------- 2 4.0 0.0 24 60
- 3.105307 2 0 ack 40 ------- 2 4.0 0.0 24 60
- 3.112955 2 3 tcp 552 ------- 2 0.0 4.0 35 67
r 3.115467 2 0 ack 40 ------- 2 4.0 0.0 24 60
+ 3.115467 0 2 tcp 552 ------- 2 0.0 4.0 37 70
- 3.115467 0 2 tcp 552 ------- 2 0.0 4.0 37 70
+ 3.115467 0 2 tcp 552 ------- 2 0.0 4.0 38 71
+ 3.115467 0 2 tcp 552 ------- 2 0.0 4.0 39 72
- 3.117675 0 2 tcp 552 ------- 2 0.0 4.0 38 71
- 3.119883 0 2 tcp 552 ------- 2 0.0 4.0 39 72
- 3.127675 2 3 tcp 552 ------- 2 0.0 4.0 36 68
r 3.127675 0 2 tcp 552 ------- 2 0.0 4.0 37 70
+ 3.127675 2 3 tcp 552 ------- 2 0.0 4.0 37 70
r 3.129883 0 2 tcp 552 ------- 2 0.0 4.0 38 71
+ 3.129883 2 3 tcp 552 ------- 2 0.0 4.0 38 71
r 3.132091 0 2 tcp 552 ------- 2 0.0 4.0 39 72
+ 3.132091 2 3 tcp 552 ------- 2 0.0 4.0 39 72
r 3.13368 4 3 ack 40 ------- 2 4.0 0.0 30 69
+ 3.13368 3 2 ack 40 ------- 2 4.0 0.0 30 69
- 3.13368 3 2 ack 40 ------- 2 4.0 0.0 30 69
r 3.134747 3 2 ack 40 ------- 2 4.0 0.0 26 61
+ 3.134747 2 0 ack 40 ------- 2 4.0 0.0 26 61
- 3.134747 2 0 ack 40 ------- 2 4.0 0.0 26 61
r 3.142395 2 3 tcp 552 ------- 2 0.0 4.0 31 62
+ 3.142395 3 4 tcp 552 ------- 2 0.0 4.0 31 62
- 3.142395 3 4 tcp 552 ------- 2 0.0 4.0 31 62
- 3.142395 2 3 tcp 552 ------- 2 0.0 4.0 37 70
r 3.144907 2 0 ack 40 ------- 2 4.0 0.0 26 61
+ 3.144907 0 2 tcp 552 ------- 2 0.0 4.0 40 73
- 3.144907 0 2 tcp 552 ------- 2 0.0 4.0 40 73
+ 3.144907 0 2 tcp 552 ------- 2 0.0 4.0 41 74
+ 3.144907 0 2 tcp 552 ------- 2 0.0 4.0 42 75
- 3.147115 0 2 tcp 552 ------- 2 0.0 4.0 41 74
- 3.149323 0 2 tcp 552 ------- 2 0.0 4.0 42 75
r 3.157115 2 3 tcp 552 ------- 2 0.0 4.0 32 63
+ 3.157115 3 4 tcp 552 ------- 2 0.0 4.0 32 63
- 3.157115 3 4 tcp 552 ------- 2 0.0 4.0 32 63
- 3.157115 2 3 tcp 552 ------- 2 0.0 4.0 38 71
r 3.157115 0 2 tcp 552 ------- 2 0.0 4.0 40 73
+ 3.157115 2 3 tcp 552 ------- 2 0.0 4.0 40 73
r 3.159323 0 2 tcp 552 ------- 2 0.0 4.0 41 74
+ 3.159323 2 3 tcp 552 ------- 2 0.0 4.0 41 74
r 3.161531 0 2 tcp 552 ------- 2 0.0 4.0 42 75
+ 3.161531 2 3 tcp 552 ------- 2 0.0 4.0 42 75
r 3.171835 2 3 tcp 552 ------- 2 0.0 4.0 33 64
+ 3.171835 3 4 tcp 552 ------- 2 0.0 4.0 33 64
- 3.171835 3 4 tcp 552 ------- 2 0.0 4.0 33 64
- 3.171835 2 3 tcp 552 ------- 2 0.0 4.0 39 72
- 3.186555 2 3 tcp 552 ------- 2 0.0 4.0 40 73
r 3.191227 3 4 tcp 552 ------- 2 0.0 4.0 31 62
- 3.201275 2 3 tcp 552 ------- 2 0.0 4.0 41 74
r 3.205307 3 2 ack 40 ------- 2 4.0 0.0 28 65
+ 3.205307 2 0 ack 40 ------- 2 4.0 0.0 28 65
- 3.205307 2 0 ack 40 ------- 2 4.0 0.0 28 65
r 3.205947 3 4 tcp 552 ------- 2 0.0 4.0 32 63
+ 3.205947 4 3 ack 40 ------- 2 4.0 0.0 32 76
- 3.205947 4 3 ack 40 ------- 2 4.0 0.0 32 76
r 3.212955 2 3 tcp 552 ------- 2 0.0 4.0 34 66
+ 3.212955 3 4 tcp 552 ------- 2 0.0 4.0 34 66
- 3.212955 3 4 tcp 552 ------- 2 0.0 4.0 34 66
r 3.215467 2 0 ack 40 ------- 2 4.0 0.0 28 65
+ 3.215467 0 2 tcp 552 ------- 2 0.0 4.0 43 77
- 3.215467 0 2 tcp 552 ------- 2 0.0 4.0 43 77
+ 3.215467 0 2 tcp 552 ------- 2 0.0 4.0 44 78
+ 3.215467 0 2 tcp 552 ------- 2 0.0 4.0 45 79
- 3.215995 2 3 tcp 552 ------- 2 0.0 4.0 42 75
- 3.217675 0 2 tcp 552 ------- 2 0.0 4.0 44 78
- 3.219883 0 2 tcp 552 ------- 2 0.0 4.0 45 79
r 3.220667 3 4 tcp 552 ------- 2 0.0 4.0 33 64
r 3.227675 2 3 tcp 552 ------- 2 0.0 4.0 35 67
+ 3.227675 3 4 tcp 552 ------- 2 0.0 4.0 35 67
- 3.227675 3 4 tcp 552 ------- 2 0.0 4.0 35 67
r 3.227675 0 2 tcp 552 ------- 2 0.0 4.0 43 77
+ 3.227675 2 3 tcp 552 ------- 2 0.0 4.0 43 77
r 3.229883 0 2 tcp 552 ------- 2 0.0 4.0 44 78
+ 3.229883 2 3 tcp 552 ------- 2 0.0 4.0 44 78
- 3.230715 2 3 tcp 552 ------- 2 0.0 4.0 43 77
r 3.232091 0 2 tcp 552 ------- 2 0.0 4.0 45 79
+ 3.232091 2 3 tcp 552 ------- 2 0.0 4.0 45 79
r 3.234747 3 2 ack 40 ------- 2 4.0 0.0 30 69
+ 3.234747 2 0 ack 40 ------- 2 4.0 0.0 30 69
- 3.234747 2 0 ack 40 ------- 2 4.0 0.0 30 69
r 3.242395 2 3 tcp 552 ------- 2 0.0 4.0 36 68
+ 3.242395 3 4 tcp 552 ------- 2 0.0 4.0 36 68
- 3.242395 3 4 tcp 552 ------- 2 0.0 4.0 36 68
r 3.244907 2 0 ack 40 ------- 2 4.0 0.0 30 69
+ 3.244907 0 2 tcp 552 ------- 2 0.0 4.0 46 80
- 3.244907 0 2 tcp 552 ------- 2 0.0 4.0 46 80
+ 3.244907 0 2 tcp 552 ------- 2 0.0 4.0 47 81
+ 3.244907 0 2 tcp 552 ------- 2 0.0 4.0 48 82
- 3.245435 2 3 tcp 552 ------- 2 0.0 4.0 44 78
r 3.246587 4 3 ack 40 ------- 2 4.0 0.0 32 76
+ 3.246587 3 2 ack 40 ------- 2 4.0 0.0 32 76
- 3.246587 3 2 ack 40 ------- 2 4.0 0.0 32 76
- 3.247115 0 2 tcp 552 ------- 2 0.0 4.0 47 81
- 3.249323 0 2 tcp 552 ------- 2 0.0 4.0 48 82
r 3.257115 2 3 tcp 552 ------- 2 0.0 4.0 37 70
+ 3.257115 3 4 tcp 552 ------- 2 0.0 4.0 37 70
- 3.257115 3 4 tcp 552 ------- 2 0.0 4.0 37 70
r 3.257115 0 2 tcp 552 ------- 2 0.0 4.0 46 80
+ 3.257115 2 3 tcp 552 ------- 2 0.0 4.0 46 80
r 3.259323 0 2 tcp 552 ------- 2 0.0 4.0 47 81
+ 3.259323 2 3 tcp 552 ------- 2 0.0 4.0 47 81
- 3.260155 2 3 tcp 552 ------- 2 0.0 4.0 45 79
r 3.261531 0 2 tcp 552 ------- 2 0.0 4.0 48 82
+ 3.261531 2 3 tcp 552 ------- 2 0.0 4.0 48 82
r 3.261787 3 4 tcp 552 ------- 2 0.0 4.0 34 66
+ 3.261787 4 3 ack 40 ------- 2 4.0 0.0 34 83
- 3.261787 4 3 ack 40 ------- 2 4.0 0.0 34 83
r 3.271835 2 3 tcp 552 ------- 2 0.0 4.0 38 71
+ 3.271835 3 4 tcp 552 ------- 2 0.0 4.0 38 71
- 3.271835 3 4 tcp 552 ------- 2 0.0 4.0 38 71
- 3.274875 2 3 tcp 552 ------- 2 0.0 4.0 46 80
r 3.276507 3 4 tcp 552 ------- 2 0.0 4.0 35 67
r 3.286555 2 3 tcp 552 ------- 2 0.0 4.0 39 72
+ 3.286555 3 4 tcp 552 ------- 2 0.0 4.0 39 72
- 3.286555 3 4 tcp 552 ------- 2 0.0 4.0 39 72
- 3.289595 2 3 tcp 552 ------- 2 0.0 4.0 47 81
r 3.291227 3 4 tcp 552 ------- 2 0.0 4.0 36 68
+ 3.291227 4 3 ack 40 ------- 2 4.0 0.0 36 84
- 3.291227 4 3 ack 40 ------- 2 4.0 0.0 36 84
r 3.301275 2 3 tcp 552 ------- 2 0.0 4.0 40 73
+ 3.301275 3 4 tcp 552 ------- 2 0.0 4.0 40 73
- 3.301275 3 4 tcp 552 ------- 2 0.0 4.0 40 73
r 3.302427 4 3 ack 40 ------- 2 4.0 0.0 34 83
+ 3.302427 3 2 ack 40 ------- 2 4.0 0.0 34 83
- 3.302427 3 2 ack 40 ------- 2 4.0 0.0 34 83
- 3.304315 2 3 tcp 552 ------- 2 0.0 4.0 48 82
r 3.305947 3 4 tcp 552 ------- 2 0.0 4.0 37 70
r 3.315995 2 3 tcp 552 ------- 2 0.0 4.0 41 74
+ 3.315995 3 4 tcp 552 ------- 2 0.0 4.0 41 74
- 3.315995 3 4 tcp 552 ------- 2 0.0 4.0 41 74
r 3.320667 3 4 tcp 552 ------- 2 0.0 4.0 38 71
+ 3.320667 4 3 ack 40 ------- 2 4.0 0.0 38 85
- 3.320667 4 3 ack 40 ------- 2 4.0 0.0 38 85
r 3.330715 2 3 tcp 552 ------- 2 0.0 4.0 42 75
+ 3.330715 3 4 tcp 552 ------- 2 0.0 4.0 42 75
- 3.330715 3 4 tcp 552 ------- 2 0.0 4.0 42 75
r 3.331867 4 3 ack 40 ------- 2 4.0 0.0 36 84
+ 3.331867 3 2 ack 40 ------- 2 4.0 0.0 36 84
- 3.331867 3 2 ack 40 ------- 2 4.0 0.0 36 84
r 3.335387 3 4 tcp 552 ------- 2 0.0 4.0 39 72
r 3.345435 2 3 tcp 552 ------- 2 0.0 4.0 43 77
+ 3.345435 3 4 tcp 552 ------- 2 0.0 4.0 43 77
- 3.345435 3 4 tcp 552 ------- 2 0.0 4.0 43 77
r 3.347653 3 2 ack 40 ------- 2 4.0 0.0 32 76
+ 3.347653 2 0 ack 40 ------- 2 4.0 0.0 32 76
- 3.347653 2 0 ack 40 ------- 2 4.0 0.0 32 76
r 3.350107 3 4 tcp 552 ------- 2 0.0 4.0 40 73
+ 3.350107 4 3 ack 40 ------- 2 4.0 0.0 40 86
- 3.350107 4 3 ack 40 ------- 2 4.0 0.0 40 86
r 3.357813 2 0 ack 40 ------- 2 4.0 0.0 32 76
+ 3.357813 0 2 tcp 552 ------- 2 0.0 4.0 49 87
- 3.357813 0 2 tcp 552 ------- 2 0.0 4.0 49 87
+ 3.357813 0 2 tcp 552 ------- 2 0.0 4.0 50 88
+ 3.357813 0 2 tcp 552 ------- 2 0.0 4.0 51 89
- 3.360021 0 2 tcp 552 ------- 2 0.0 4.0 50 88
r 3.360155 2 3 tcp 552 ------- 2 0.0 4.0 44 78
+ 3.360155 3 4 tcp 552 ------- 2 0.0 4.0 44 78
- 3.360155 3 4 tcp 552 ------- 2 0.0 4.0 44 78
r 3.361307 4 3 ack 40 ------- 2 4.0 0.0 38 85
+ 3.361307 3 2 ack 40 ------- 2 4.0 0.0 38 85
- 3.361307 3 2 ack 40 ------- 2 4.0 0.0 38 85
- 3.362229 0 2 tcp 552 ------- 2 0.0 4.0 51 89
r 3.364827 3 4 tcp 552 ------- 2 0.0 4.0 41 74
r 3.370021 0 2 tcp 552 ------- 2 0.0 4.0 49 87
+ 3.370021 2 3 tcp 552 ------- 2 0.0 4.0 49 87
- 3.370021 2 3 tcp 552 ------- 2 0.0 4.0 49 87
r 3.372229 0 2 tcp 552 ------- 2 0.0 4.0 50 88
+ 3.372229 2 3 tcp 552 ------- 2 0.0 4.0 50 88
r 3.374437 0 2 tcp 552 ------- 2 0.0 4.0 51 89
+ 3.374437 2 3 tcp 552 ------- 2 0.0 4.0 51 89
r 3.374875 2 3 tcp 552 ------- 2 0.0 4.0 45 79
+ 3.374875 3 4 tcp 552 ------- 2 0.0 4.0 45 79
- 3.374875 3 4 tcp 552 ------- 2 0.0 4.0 45 79
r 3.379547 3 4 tcp 552 ------- 2 0.0 4.0 42 75
+ 3.379547 4 3 ack 40 ------- 2 4.0 0.0 42 92
- 3.379547 4 3 ack 40 ------- 2 4.0 0.0 42 92
- 3.384741 2 3 tcp 552 ------- 2 0.0 4.0 50 88
r 3.389595 2 3 tcp 552 ------- 2 0.0 4.0 46 80
+ 3.389595 3 4 tcp 552 ------- 2 0.0 4.0 46 80
- 3.389595 3 4 tcp 552 ------- 2 0.0 4.0 46 80
r 3.390747 4 3 ack 40 ------- 2 4.0 0.0 40 86
+ 3.390747 3 2 ack 40 ------- 2 4.0 0.0 40 86
- 3.390747 3 2 ack 40 ------- 2 4.0 0.0 40 86
r 3.394267 3 4 tcp 552 ------- 2 0.0 4.0 43 77
- 3.399461 2 3 tcp 552 ------- 2 0.0 4.0 51 89
r 3.403493 3 2 ack 40 ------- 2 4.0 0.0 34 83
+ 3.403493 2 0 ack 40 ------- 2 4.0 0.0 34 83
- 3.403493 2 0 ack 40 ------- 2 4.0 0.0 34 83
r 3.404315 2 3 tcp 552 ------- 2 0.0 4.0 47 81
+ 3.404315 3 4 tcp 552 ------- 2 0.0 4.0 47 81
- 3.404315 3 4 tcp 552 ------- 2 0.0 4.0 47 81
r 3.408987 3 4 tcp 552 ------- 2 0.0 4.0 44 78
+ 3.408987 4 3 ack 40 ------- 2 4.0 0.0 44 93
- 3.408987 4 3 ack 40 ------- 2 4.0 0.0 44 93
r 3.413653 2 0 ack 40 ------- 2 4.0 0.0 34 83
+ 3.413653 0 2 tcp 552 ------- 2 0.0 4.0 52 94
- 3.413653 0 2 tcp 552 ------- 2 0.0 4.0 52 94
+ 3.413653 0 2 tcp 552 ------- 2 0.0 4.0 53 95
+ 3.413653 0 2 tcp 552 ------- 2 0.0 4.0 54 96
- 3.415861 0 2 tcp 552 ------- 2 0.0 4.0 53 95
- 3.418069 0 2 tcp 552 ------- 2 0.0 4.0 54 96
r 3.419035 2 3 tcp 552 ------- 2 0.0 4.0 48 82
+ 3.419035 3 4 tcp 552 ------- 2 0.0 4.0 48 82
- 3.419035 3 4 tcp 552 ------- 2 0.0 4.0 48 82