+ 0.1 1 2 cbr 1000 ------- 1 1.0 5.0 0 0
- 0.1 1 2 cbr 1000 ------- 1 1.0 5.0 0 0
+ 0.1 1 2 cbr 24 ------- 1 1.0 5.0 1 1
- 0.104 1 2 cbr 24 ------- 1 1.0 5.0 1 1
r 0.114 1 2 cbr 1000 ------- 1 1.0 5.0 0 0
+ 0.114 2 3 cbr 1000 ------- 1 1.0 5.0 0 0
- 0.114 2 3 cbr 1000 ------- 1 1.0 5.0 0 0
r 0.114096 1 2 cbr 24 ------- 1 1.0 5.0 1 1
+ 0.114096 2 3 cbr 24 ------- 1 1.0 5.0 1 1
- 0.140667 2 3 cbr 24 ------- 1 1.0 5.0 1 1
r 0.240667 2 3 cbr 1000 ------- 1 1.0 5.0 0 0
+ 0.240667 3 5 cbr 1000 ------- 1 1.0 5.0 0 0
- 0.240667 3 5 cbr 1000 ------- 1 1.0 5.0 0 0
r 0.241307 2 3 cbr 24 ------- 1 1.0 5.0 1 1
+ 0.241307 3 5 cbr 24 ------- 1 1.0 5.0 1 1
- 0.256667 3 5 cbr 24 ------- 1 1.0 5.0 1 1
r 0.296667 3 5 cbr 1000 ------- 1 1.0 5.0 0 0
r 0.297051 3 5 cbr 24 ------- 1 1.0 5.0 1 1
+ 0.5 0 2 tcp 40 ------- 2 0.0 4.0 0 2
- 0.5 0 2 tcp 40 ------- 2 0.0 4.0 0 2
r 0.51016 0 2 tcp 40 ------- 2 0.0 4.0 0 2
+ 0.51016 2 3 tcp 40 ------- 2 0.0 4.0 0 2
- 0.51016 2 3 tcp 40 ------- 2 0.0 4.0 0 2
r 0.611227 2 3 tcp 40 ------- 2 0.0 4.0 0 2
+ 0.611227 3 4 tcp 40 ------- 2 0.0 4.0 0 2
- 0.611227 3 4 tcp 40 ------- 2 0.0 4.0 0 2
r 0.651867 3 4 tcp 40 ------- 2 0.0 4.0 0 2
+ 0.651867 4 3 ack 40 ------- 2 4.0 0.0 0 3
- 0.651867 4 3 ack 40 ------- 2 4.0 0.0 0 3
r 0.692507 4 3 ack 40 ------- 2 4.0 0.0 0 3
+ 0.692507 3 2 ack 40 ------- 2 4.0 0.0 0 3
- 0.692507 3 2 ack 40 ------- 2 4.0 0.0 0 3
r 0.793573 3 2 ack 40 ------- 2 4.0 0.0 0 3
+ 0.793573 2 0 ack 40 ------- 2 4.0 0.0 0 3
- 0.793573 2 0 ack 40 ------- 2 4.0 0.0 0 3
r 0.803733 2 0 ack 40 ------- 2 4.0 0.0 0 3
+ 0.803733 0 2 tcp 552 ------- 2 0.0 4.0 1 4
- 0.803733 0 2 tcp 552 ------- 2 0.0 4.0 1 4
+ 0.803733 0 2 tcp 552 ------- 2 0.0 4.0 2 5
- 0.805941 0 2 tcp 552 ------- 2 0.0 4.0 2 5
r 0.815941 0 2 tcp 552 ------- 2 0.0 4.0 1 4
+ 0.815941 2 3 tcp 552 ------- 2 0.0 4.0 1 4
- 0.815941 2 3 tcp 552 ------- 2 0.0 4.0 1 4
r 0.818149 0 2 tcp 552 ------- 2 0.0 4.0 2 5
+ 0.818149 2 3 tcp 552 ------- 2 0.0 4.0 2 5
- 0.830661 2 3 tcp 552 ------- 2 0.0 4.0 2 5
+ 0.9192 1 2 cbr 1000 ------- 1 1.0 5.0 2 6
- 0.9192 1 2 cbr 1000 ------- 1 1.0 5.0 2 6
+ 0.9192 1 2 cbr 24 ------- 1 1.0 5.0 3 7
- 0.9232 1 2 cbr 24 ------- 1 1.0 5.0 3 7
r 0.930661 2 3 tcp 552 ------- 2 0.0 4.0 1 4
+ 0.930661 3 4 tcp 552 ------- 2 0.0 4.0 1 4
- 0.930661 3 4 tcp 552 ------- 2 0.0 4.0 1 4
r 0.9332 1 2 cbr 1000 ------- 1 1.0 5.0 2 6
+ 0.9332 2 3 cbr 1000 ------- 1 1.0 5.0 2 6
- 0.9332 2 3 cbr 1000 ------- 1 1.0 5.0 2 6
r 0.933296 1 2 cbr 24 ------- 1 1.0 5.0 3 7
+ 0.933296 2 3 cbr 24 ------- 1 1.0 5.0 3 7
r 0.945381 2 3 tcp 552 ------- 2 0.0 4.0 2 5
+ 0.945381 3 4 tcp 552 ------- 2 0.0 4.0 2 5
- 0.945381 3 4 tcp 552 ------- 2 0.0 4.0 2 5
- 0.959867 2 3 cbr 24 ------- 1 1.0 5.0 3 7
r 0.979493 3 4 tcp 552 ------- 2 0.0 4.0 1 4
r 0.994213 3 4 tcp 552 ------- 2 0.0 4.0 2 5
+ 0.994213 4 3 ack 40 ------- 2 4.0 0.0 2 8
- 0.994213 4 3 ack 40 ------- 2 4.0 0.0 2 8
r 1.034853 4 3 ack 40 ------- 2 4.0 0.0 2 8
+ 1.034853 3 2 ack 40 ------- 2 4.0 0.0 2 8
- 1.034853 3 2 ack 40 ------- 2 4.0 0.0 2 8
r 1.059867 2 3 cbr 1000 ------- 1 1.0 5.0 2 6
+ 1.059867 3 5 cbr 1000 ------- 1 1.0 5.0 2 6
- 1.059867 3 5 cbr 1000 ------- 1 1.0 5.0 2 6
r 1.060507 2 3 cbr 24 ------- 1 1.0 5.0 3 7
+ 1.060507 3 5 cbr 24 ------- 1 1.0 5.0 3 7
- 1.075867 3 5 cbr 24 ------- 1 1.0 5.0 3 7
r 1.115867 3 5 cbr 1000 ------- 1 1.0 5.0 2 6
r 1.116251 3 5 cbr 24 ------- 1 1.0 5.0 3 7
r 1.13592 3 2 ack 40 ------- 2 4.0 0.0 2 8
+ 1.13592 2 0 ack 40 ------- 2 4.0 0.0 2 8
- 1.13592 2 0 ack 40 ------- 2 4.0 0.0 2 8
r 1.14608 2 0 ack 40 ------- 2 4.0 0.0 2 8
+ 1.14608 0 2 tcp 552 ------- 2 0.0 4.0 3 9
- 1.14608 0 2 tcp 552 ------- 2 0.0 4.0 3 9
+ 1.14608 0 2 tcp 552 ------- 2 0.0 4.0 4 10
+ 1.14608 0 2 tcp 552 ------- 2 0.0 4.0 5 11
- 1.148288 0 2 tcp 552 ------- 2 0.0 4.0 4 10
- 1.150496 0 2 tcp 552 ------- 2 0.0 4.0 5 11
r 1.158288 0 2 tcp 552 ------- 2 0.0 4.0 3 9
+ 1.158288 2 3 tcp 552 ------- 2 0.0 4.0 3 9
- 1.158288 2 3 tcp 552 ------- 2 0.0 4.0 3 9
r 1.160496 0 2 tcp 552 ------- 2 0.0 4.0 4 10
+ 1.160496 2 3 tcp 552 ------- 2 0.0 4.0 4 10
r 1.162704 0 2 tcp 552 ------- 2 0.0 4.0 5 11
+ 1.162704 2 3 tcp 552 ------- 2 0.0 4.0 5 11
- 1.173008 2 3 tcp 552 ------- 2 0.0 4.0 4 10
- 1.187728 2 3 tcp 552 ------- 2 0.0 4.0 5 11
r 1.273008 2 3 tcp 552 ------- 2 0.0 4.0 3 9
+ 1.273008 3 4 tcp 552 ------- 2 0.0 4.0 3 9
- 1.273008 3 4 tcp 552 ------- 2 0.0 4.0 3 9
r 1.287728 2 3 tcp 552 ------- 2 0.0 4.0 4 10
+ 1.287728 3 4 tcp 552 ------- 2 0.0 4.0 4 10
- 1.287728 3 4 tcp 552 ------- 2 0.0 4.0 4 10
r 1.302448 2 3 tcp 552 ------- 2 0.0 4.0 5 11
+ 1.302448 3 4 tcp 552 ------- 2 0.0 4.0 5 11
- 1.302448 3 4 tcp 552 ------- 2 0.0 4.0 5 11
r 1.32184 3 4 tcp 552 ------- 2 0.0 4.0 3 9
r 1.33656 3 4 tcp 552 ------- 2 0.0 4.0 4 10
+ 1.33656 4 3 ack 40 ------- 2 4.0 0.0 4 12
- 1.33656 4 3 ack 40 ------- 2 4.0 0.0 4 12
r 1.35128 3 4 tcp 552 ------- 2 0.0 4.0 5 11
r 1.3772 4 3 ack 40 ------- 2 4.0 0.0 4 12
+ 1.3772 3 2 ack 40 ------- 2 4.0 0.0 4 12
- 1.3772 3 2 ack 40 ------- 2 4.0 0.0 4 12
+ 1.45128 4 3 ack 40 ------- 2 4.0 0.0 5 13
- 1.45128 4 3 ack 40 ------- 2 4.0 0.0 5 13
r 1.478267 3 2 ack 40 ------- 2 4.0 0.0 4 12
+ 1.478267 2 0 ack 40 ------- 2 4.0 0.0 4 12
- 1.478267 2 0 ack 40 ------- 2 4.0 0.0 4 12
r 1.488427 2 0 ack 40 ------- 2 4.0 0.0 4 12
+ 1.488427 0 2 tcp 552 ------- 2 0.0 4.0 6 14
- 1.488427 0 2 tcp 552 ------- 2 0.0 4.0 6 14
+ 1.488427 0 2 tcp 552 ------- 2 0.0 4.0 7 15
+ 1.488427 0 2 tcp 552 ------- 2 0.0 4.0 8 16
- 1.490635 0 2 tcp 552 ------- 2 0.0 4.0 7 15
r 1.49192 4 3 ack 40 ------- 2 4.0 0.0 5 13
+ 1.49192 3 2 ack 40 ------- 2 4.0 0.0 5 13
- 1.49192 3 2 ack 40 ------- 2 4.0 0.0 5 13
- 1.492843 0 2 tcp 552 ------- 2 0.0 4.0 8 16
r 1.500635 0 2 tcp 552 ------- 2 0.0 4.0 6 14
+ 1.500635 2 3 tcp 552 ------- 2 0.0 4.0 6 14
- 1.500635 2 3 tcp 552 ------- 2 0.0 4.0 6 14
r 1.502843 0 2 tcp 552 ------- 2 0.0 4.0 7 15
+ 1.502843 2 3 tcp 552 ------- 2 0.0 4.0 7 15
r 1.505051 0 2 tcp 552 ------- 2 0.0 4.0 8 16
+ 1.505051 2 3 tcp 552 ------- 2 0.0 4.0 8 16
- 1.515355 2 3 tcp 552 ------- 2 0.0 4.0 7 15
- 1.530075 2 3 tcp 552 ------- 2 0.0 4.0 8 16
r 1.592987 3 2 ack 40 ------- 2 4.0 0.0 5 13
+ 1.592987 2 0 ack 40 ------- 2 4.0 0.0 5 13
- 1.592987 2 0 ack 40 ------- 2 4.0 0.0 5 13
r 1.603147 2 0 ack 40 ------- 2 4.0 0.0 5 13
+ 1.603147 0 2 tcp 552 ------- 2 0.0 4.0 9 17
- 1.603147 0 2 tcp 552 ------- 2 0.0 4.0 9 17
+ 1.603147 0 2 tcp 552 ------- 2 0.0 4.0 10 18
- 1.605355 0 2 tcp 552 ------- 2 0.0 4.0 10 18
r 1.615355 2 3 tcp 552 ------- 2 0.0 4.0 6 14
+ 1.615355 3 4 tcp 552 ------- 2 0.0 4.0 6 14
- 1.615355 3 4 tcp 552 ------- 2 0.0 4.0 6 14
r 1.615355 0 2 tcp 552 ------- 2 0.0 4.0 9 17
+ 1.615355 2 3 tcp 552 ------- 2 0.0 4.0 9 17
- 1.615355 2 3 tcp 552 ------- 2 0.0 4.0 9 17
r 1.617563 0 2 tcp 552 ------- 2 0.0 4.0 10 18
+ 1.617563 2 3 tcp 552 ------- 2 0.0 4.0 10 18
r 1.630075 2 3 tcp 552 ------- 2 0.0 4.0 7 15
+ 1.630075 3 4 tcp 552 ------- 2 0.0 4.0 7 15
- 1.630075 3 4 tcp 552 ------- 2 0.0 4.0 7 15
- 1.630075 2 3 tcp 552 ------- 2 0.0 4.0 10 18
r 1.644795 2 3 tcp 552 ------- 2 0.0 4.0 8 16
+ 1.644795 3 4 tcp 552 ------- 2 0.0 4.0 8 16
- 1.644795 3 4 tcp 552 ------- 2 0.0 4.0 8 16
r 1.664187 3 4 tcp 552 ------- 2 0.0 4.0 6 14
r 1.678907 3 4 tcp 552 ------- 2 0.0 4.0 7 15
+ 1.678907 4 3 ack 40 ------- 2 4.0 0.0 7 19
- 1.678907 4 3 ack 40 ------- 2 4.0 0.0 7 19
r 1.693627 3 4 tcp 552 ------- 2 0.0 4.0 8 16
r 1.719547 4 3 ack 40 ------- 2 4.0 0.0 7 19
+ 1.719547 3 2 ack 40 ------- 2 4.0 0.0 7 19
- 1.719547 3 2 ack 40 ------- 2 4.0 0.0 7 19
r 1.730075 2 3 tcp 552 ------- 2 0.0 4.0 9 17
+ 1.730075 3 4 tcp 552 ------- 2 0.0 4.0 9 17
- 1.730075 3 4 tcp 552 ------- 2 0.0 4.0 9 17
+ 1.7384 1 2 cbr 1000 ------- 1 1.0 5.0 4 20
- 1.7384 1 2 cbr 1000 ------- 1 1.0 5.0 4 20
+ 1.7384 1 2 cbr 24 ------- 1 1.0 5.0 5 21
- 1.7424 1 2 cbr 24 ------- 1 1.0 5.0 5 21
r 1.744795 2 3 tcp 552 ------- 2 0.0 4.0 10 18
+ 1.744795 3 4 tcp 552 ------- 2 0.0 4.0 10 18
- 1.744795 3 4 tcp 552 ------- 2 0.0 4.0 10 18
r 1.7524 1 2 cbr 1000 ------- 1 1.0 5.0 4 20
+ 1.7524 2 3 cbr 1000 ------- 1 1.0 5.0 4 20
- 1.7524 2 3 cbr 1000 ------- 1 1.0 5.0 4 20
r 1.752496 1 2 cbr 24 ------- 1 1.0 5.0 5 21
+ 1.752496 2 3 cbr 24 ------- 1 1.0 5.0 5 21
r 1.778907 3 4 tcp 552 ------- 2 0.0 4.0 9 17
+ 1.778907 4 3 ack 40 ------- 2 4.0 0.0 9 22
- 1.778907 4 3 ack 40 ------- 2 4.0 0.0 9 22
- 1.779067 2 3 cbr 24 ------- 1 1.0 5.0 5 21
r 1.793627 3 4 tcp 552 ------- 2 0.0 4.0 10 18
r 1.819547 4 3 ack 40 ------- 2 4.0 0.0 9 22
+ 1.819547 3 2 ack 40 ------- 2 4.0 0.0 9 22
- 1.819547 3 2 ack 40 ------- 2 4.0 0.0 9 22
r 1.820613 3 2 ack 40 ------- 2 4.0 0.0 7 19
+ 1.820613 2 0 ack 40 ------- 2 4.0 0.0 7 19
- 1.820613 2 0 ack 40 ------- 2 4.0 0.0 7 19
r 1.830773 2 0 ack 40 ------- 2 4.0 0.0 7 19
+ 1.830773 0 2 tcp 552 ------- 2 0.0 4.0 11 23
- 1.830773 0 2 tcp 552 ------- 2 0.0 4.0 11 23
+ 1.830773 0 2 tcp 552 ------- 2 0.0 4.0 12 24
+ 1.830773 0 2 tcp 552 ------- 2 0.0 4.0 13 25
- 1.832981 0 2 tcp 552 ------- 2 0.0 4.0 12 24
- 1.835189 0 2 tcp 552 ------- 2 0.0 4.0 13 25
r 1.842981 0 2 tcp 552 ------- 2 0.0 4.0 11 23
+ 1.842981 2 3 tcp 552 ------- 2 0.0 4.0 11 23
- 1.842981 2 3 tcp 552 ------- 2 0.0 4.0 11 23
r 1.845189 0 2 tcp 552 ------- 2 0.0 4.0 12 24
+ 1.845189 2 3 tcp 552 ------- 2 0.0 4.0 12 24
r 1.847397 0 2 tcp 552 ------- 2 0.0 4.0 13 25
+ 1.847397 2 3 tcp 552 ------- 2 0.0 4.0 13 25
- 1.857701 2 3 tcp 552 ------- 2 0.0 4.0 12 24
- 1.872421 2 3 tcp 552 ------- 2 0.0 4.0 13 25
r 1.879067 2 3 cbr 1000 ------- 1 1.0 5.0 4 20
+ 1.879067 3 5 cbr 1000 ------- 1 1.0 5.0 4 20
- 1.879067 3 5 cbr 1000 ------- 1 1.0 5.0 4 20
r 1.879707 2 3 cbr 24 ------- 1 1.0 5.0 5 21
+ 1.879707 3 5 cbr 24 ------- 1 1.0 5.0 5 21
+ 1.893627 4 3 ack 40 ------- 2 4.0 0.0 10 26
- 1.893627 4 3 ack 40 ------- 2 4.0 0.0 10 26
- 1.895067 3 5 cbr 24 ------- 1 1.0 5.0 5 21
r 1.920613 3 2 ack 40 ------- 2 4.0 0.0 9 22
+ 1.920613 2 0 ack 40 ------- 2 4.0 0.0 9 22
- 1.920613 2 0 ack 40 ------- 2 4.0 0.0 9 22
r 1.930773 2 0 ack 40 ------- 2 4.0 0.0 9 22
+ 1.930773 0 2 tcp 552 ------- 2 0.0 4.0 14 27
- 1.930773 0 2 tcp 552 ------- 2 0.0 4.0 14 27
+ 1.930773 0 2 tcp 552 ------- 2 0.0 4.0 15 28
+ 1.930773 0 2 tcp 552 ------- 2 0.0 4.0 16 29
- 1.932981 0 2 tcp 552 ------- 2 0.0 4.0 15 28
r 1.934267 4 3 ack 40 ------- 2 4.0 0.0 10 26
+ 1.934267 3 2 ack 40 ------- 2 4.0 0.0 10 26
- 1.934267 3 2 ack 40 ------- 2 4.0 0.0 10 26
r 1.935067 3 5 cbr 1000 ------- 1 1.0 5.0 4 20
- 1.935189 0 2 tcp 552 ------- 2 0.0 4.0 16 29
r 1.935451 3 5 cbr 24 ------- 1 1.0 5.0 5 21
r 1.942981 0 2 tcp 552 ------- 2 0.0 4.0 14 27
+ 1.942981 2 3 tcp 552 ------- 2 0.0 4.0 14 27
- 1.942981 2 3 tcp 552 ------- 2 0.0 4.0 14 27
r 1.945189 0 2 tcp 552 ------- 2 0.0 4.0 15 28
+ 1.945189 2 3 tcp 552 ------- 2 0.0 4.0 15 28
r 1.947397 0 2 tcp 552 ------- 2 0.0 4.0 16 29
+ 1.947397 2 3 tcp 552 ------- 2 0.0 4.0 16 29
r 1.957701 2 3 tcp 552 ------- 2 0.0 4.0 11 23
+ 1.957701 3 4 tcp 552 ------- 2 0.0 4.0 11 23
- 1.957701 3 4 tcp 552 ------- 2 0.0 4.0 11 23
- 1.957701 2 3 tcp 552 ------- 2 0.0 4.0 15 28
r 1.972421 2 3 tcp 552 ------- 2 0.0 4.0 12 24
+ 1.972421 3 4 tcp 552 ------- 2 0.0 4.0 12 24
- 1.972421 3 4 tcp 552 ------- 2 0.0 4.0 12 24
- 1.972421 2 3 tcp 552 ------- 2 0.0 4.0 16 29
r 1.987141 2 3 tcp 552 ------- 2 0.0 4.0 13 25
+ 1.987141 3 4 tcp 552 ------- 2 0.0 4.0 13 25
- 1.987141 3 4 tcp 552 ------- 2 0.0 4.0 13 25
r 2.006533 3 4 tcp 552 ------- 2 0.0 4.0 11 23
r 2.021253 3 4 tcp 552 ------- 2 0.0 4.0 12 24
+ 2.021253 4 3 ack 40 ------- 2 4.0 0.0 12 30
- 2.021253 4 3 ack 40 ------- 2 4.0 0.0 12 30
r 2.035333 3 2 ack 40 ------- 2 4.0 0.0 10 26
+ 2.035333 2 0 ack 40 ------- 2 4.0 0.0 10 26
- 2.035333 2 0 ack 40 ------- 2 4.0 0.0 10 26
r 2.035973 3 4 tcp 552 ------- 2 0.0 4.0 13 25
r 2.045493 2 0 ack 40 ------- 2 4.0 0.0 10 26
+ 2.045493 0 2 tcp 552 ------- 2 0.0 4.0 17 31
- 2.045493 0 2 tcp 552 ------- 2 0.0 4.0 17 31
+ 2.045493 0 2 tcp 552 ------- 2 0.0 4.0 18 32
- 2.047701 0 2 tcp 552 ------- 2 0.0 4.0 18 32
r 2.057701 2 3 tcp 552 ------- 2 0.0 4.0 14 27
+ 2.057701 3 4 tcp 552 ------- 2 0.0 4.0 14 27
- 2.057701 3 4 tcp 552 ------- 2 0.0 4.0 14 27
r 2.057701 0 2 tcp 552 ------- 2 0.0 4.0 17 31
+ 2.057701 2 3 tcp 552 ------- 2 0.0 4.0 17 31
- 2.057701 2 3 tcp 552 ------- 2 0.0 4.0 17 31
r 2.059909 0 2 tcp 552 ------- 2 0.0 4.0 18 32
+ 2.059909 2 3 tcp 552 ------- 2 0.0 4.0 18 32
r 2.061893 4 3 ack 40 ------- 2 4.0 0.0 12 30
+ 2.061893 3 2 ack 40 ------- 2 4.0 0.0 12 30
- 2.061893 3 2 ack 40 ------- 2 4.0 0.0 12 30
r 2.072421 2 3 tcp 552 ------- 2 0.0 4.0 15 28
+ 2.072421 3 4 tcp 552 ------- 2 0.0 4.0 15 28
- 2.072421 3 4 tcp 552 ------- 2 0.0 4.0 15 28
- 2.072421 2 3 tcp 552 ------- 2 0.0 4.0 18 32
r 2.087141 2 3 tcp 552 ------- 2 0.0 4.0 16 29
+ 2.087141 3 4 tcp 552 ------- 2 0.0 4.0 16 29
- 2.087141 3 4 tcp 552 ------- 2 0.0 4.0 16 29
r 2.106533 3 4 tcp 552 ------- 2 0.0 4.0 14 27
+ 2.106533 4 3 ack 40 ------- 2 4.0 0.0 14 33
- 2.106533 4 3 ack 40 ------- 2 4.0 0.0 14 33
r 2.121253 3 4 tcp 552 ------- 2 0.0 4.0 15 28
r 2.135973 3 4 tcp 552 ------- 2 0.0 4.0 16 29
+ 2.135973 4 3 ack 40 ------- 2 4.0 0.0 16 34
- 2.135973 4 3 ack 40 ------- 2 4.0 0.0 16 34
r 2.147173 4 3 ack 40 ------- 2 4.0 0.0 14 33
+ 2.147173 3 2 ack 40 ------- 2 4.0 0.0 14 33
- 2.147173 3 2 ack 40 ------- 2 4.0 0.0 14 33
r 2.16296 3 2 ack 40 ------- 2 4.0 0.0 12 30
+ 2.16296 2 0 ack 40 ------- 2 4.0 0.0 12 30
- 2.16296 2 0 ack 40 ------- 2 4.0 0.0 12 30
r 2.172421 2 3 tcp 552 ------- 2 0.0 4.0 17 31
+ 2.172421 3 4 tcp 552 ------- 2 0.0 4.0 17 31
- 2.172421 3 4 tcp 552 ------- 2 0.0 4.0 17 31
r 2.17312 2 0 ack 40 ------- 2 4.0 0.0 12 30
+ 2.17312 0 2 tcp 552 ------- 2 0.0 4.0 19 35
- 2.17312 0 2 tcp 552 ------- 2 0.0 4.0 19 35
+ 2.17312 0 2 tcp 552 ------- 2 0.0 4.0 20 36
+ 2.17312 0 2 tcp 552 ------- 2 0.0 4.0 21 37
- 2.175328 0 2 tcp 552 ------- 2 0.0 4.0 20 36
r 2.176613 4 3 ack 40 ------- 2 4.0 0.0 16 34
+ 2.176613 3 2 ack 40 ------- 2 4.0 0.0 16 34
- 2.176613 3 2 ack 40 ------- 2 4.0 0.0 16 34
- 2.177536 0 2 tcp 552 ------- 2 0.0 4.0 21 37
r 2.185328 0 2 tcp 552 ------- 2 0.0 4.0 19 35
+ 2.185328 2 3 tcp 552 ------- 2 0.0 4.0 19 35
- 2.185328 2 3 tcp 552 ------- 2 0.0 4.0 19 35
r 2.187141 2 3 tcp 552 ------- 2 0.0 4.0 18 32
+ 2.187141 3 4 tcp 552 ------- 2 0.0 4.0 18 32
- 2.187141 3 4 tcp 552 ------- 2 0.0 4.0 18 32
r 2.187536 0 2 tcp 552 ------- 2 0.0 4.0 20 36
+ 2.187536 2 3 tcp 552 ------- 2 0.0 4.0 20 36
r 2.189744 0 2 tcp 552 ------- 2 0.0 4.0 21 37
+ 2.189744 2 3 tcp 552 ------- 2 0.0 4.0 21 37
- 2.200048 2 3 tcp 552 ------- 2 0.0 4.0 20 36
- 2.214768 2 3 tcp 552 ------- 2 0.0 4.0 21 37
r 2.221253 3 4 tcp 552 ------- 2 0.0 4.0 17 31
r 2.235973 3 4 tcp 552 ------- 2 0.0 4.0 18 32
+ 2.235973 4 3 ack 40 ------- 2 4.0 0.0 18 38
- 2.235973 4 3 ack 40 ------- 2 4.0 0.0 18 38
r 2.24824 3 2 ack 40 ------- 2 4.0 0.0 14 33
+ 2.24824 2 0 ack 40 ------- 2 4.0 0.0 14 33
- 2.24824 2 0 ack 40 ------- 2 4.0 0.0 14 33
r 2.2584 2 0 ack 40 ------- 2 4.0 0.0 14 33
+ 2.2584 0 2 tcp 552 ------- 2 0.0 4.0 22 39
- 2.2584 0 2 tcp 552 ------- 2 0.0 4.0 22 39
+ 2.2584 0 2 tcp 552 ------- 2 0.0 4.0 23 40
+ 2.2584 0 2 tcp 552 ------- 2 0.0 4.0 24 41
- 2.260608 0 2 tcp 552 ------- 2 0.0 4.0 23 40
- 2.262816 0 2 tcp 552 ------- 2 0.0 4.0 24 41
r 2.270608 0 2 tcp 552 ------- 2 0.0 4.0 22 39
+ 2.270608 2 3 tcp 552 ------- 2 0.0 4.0 22 39
- 2.270608 2 3 tcp 552 ------- 2 0.0 4.0 22 39
r 2.272816 0 2 tcp 552 ------- 2 0.0 4.0 23 40
+ 2.272816 2 3 tcp 552 ------- 2 0.0 4.0 23 40
r 2.275024 0 2 tcp 552 ------- 2 0.0 4.0 24 41
+ 2.275024 2 3 tcp 552 ------- 2 0.0 4.0 24 41
r 2.276613 4 3 ack 40 ------- 2 4.0 0.0 18 38
+ 2.276613 3 2 ack 40 ------- 2 4.0 0.0 18 38
- 2.276613 3 2 ack 40 ------- 2 4.0 0.0 18 38
r 2.27768 3 2 ack 40 ------- 2 4.0 0.0 16 34
+ 2.27768 2 0 ack 40 ------- 2 4.0 0.0 16 34
- 2.27768 2 0 ack 40 ------- 2 4.0 0.0 16 34
- 2.285328 2 3 tcp 552 ------- 2 0.0 4.0 23 40
r 2.28784 2 0 ack 40 ------- 2 4.0 0.0 16 34
+ 2.28784 0 2 tcp 552 ------- 2 0.0 4.0 25 42
- 2.28784 0 2 tcp 552 ------- 2 0.0 4.0 25 42
+ 2.28784 0 2 tcp 552 ------- 2 0.0 4.0 26 43
+ 2.28784 0 2 tcp 552 ------- 2 0.0 4.0 27 44
- 2.290048 0 2 tcp 552 ------- 2 0.0 4.0 26 43
- 2.292256 0 2 tcp 552 ------- 2 0.0 4.0 27 44
r 2.300048 2 3 tcp 552 ------- 2 0.0 4.0 19 35
+ 2.300048 3 4 tcp 552 ------- 2 0.0 4.0 19 35
- 2.300048 3 4 tcp 552 ------- 2 0.0 4.0 19 35
- 2.300048 2 3 tcp 552 ------- 2 0.0 4.0 24 41
r 2.300048 0 2 tcp 552 ------- 2 0.0 4.0 25 42
+ 2.300048 2 3 tcp 552 ------- 2 0.0 4.0 25 42
r 2.302256 0 2 tcp 552 ------- 2 0.0 4.0 26 43
+ 2.302256 2 3 tcp 552 ------- 2 0.0 4.0 26 43
r 2.304464 0 2 tcp 552 ------- 2 0.0 4.0 27 44
+ 2.304464 2 3 tcp 552 ------- 2 0.0 4.0 27 44
r 2.314768 2 3 tcp 552 ------- 2 0.0 4.0 20 36
+ 2.314768 3 4 tcp 552 ------- 2 0.0 4.0 20 36
- 2.314768 3 4 tcp 552 ------- 2 0.0 4.0 20 36
- 2.314768 2 3 tcp 552 ------- 2 0.0 4.0 25 42
r 2.329488 2 3 tcp 552 ------- 2 0.0 4.0 21 37
+ 2.329488 3 4 tcp 552 ------- 2 0.0 4.0 21 37
- 2.329488 3 4 tcp 552 ------- 2 0.0 4.0 21 37
- 2.329488 2 3 tcp 552 ------- 2 0.0 4.0 26 43
- 2.344208 2 3 tcp 552 ------- 2 0.0 4.0 27 44
r 2.34888 3 4 tcp 552 ------- 2 0.0 4.0 19 35
r 2.3636 3 4 tcp 552 ------- 2 0.0 4.0 20 36
+ 2.3636 4 3 ack 40 ------- 2 4.0 0.0 20 45
- 2.3636 4 3 ack 40 ------- 2 4.0 0.0 20 45
r 2.37768 3 2 ack 40 ------- 2 4.0 0.0 18 38
+ 2.37768 2 0 ack 40 ------- 2 4.0 0.0 18 38
- 2.37768 2 0 ack 40 ------- 2 4.0 0.0 18 38
r 2.37832 3 4 tcp 552 ------- 2 0.0 4.0 21 37
r 2.385328 2 3 tcp 552 ------- 2 0.0 4.0 22 39
+ 2.385328 3 4 tcp 552 ------- 2 0.0 4.0 22 39
- 2.385328 3 4 tcp 552 ------- 2 0.0 4.0 22 39
r 2.38784 2 0 ack 40 ------- 2 4.0 0.0 18 38
+ 2.38784 0 2 tcp 552 ------- 2 0.0 4.0 28 46
- 2.38784 0 2 tcp 552 ------- 2 0.0 4.0 28 46
+ 2.38784 0 2 tcp 552 ------- 2 0.0 4.0 29 47
+ 2.38784 0 2 tcp 552 ------- 2 0.0 4.0 30 48
- 2.390048 0 2 tcp 552 ------- 2 0.0 4.0 29 47
- 2.392256 0 2 tcp 552 ------- 2 0.0 4.0 30 48
r 2.400048 2 3 tcp 552 ------- 2 0.0 4.0 23 40
+ 2.400048 3 4 tcp 552 ------- 2 0.0 4.0 23 40
- 2.400048 3 4 tcp 552 ------- 2 0.0 4.0 23 40
r 2.400048 0 2 tcp 552 ------- 2 0.0 4.0 28 46
+ 2.400048 2 3 tcp 552 ------- 2 0.0 4.0 28 46
- 2.400048 2 3 tcp 552 ------- 2 0.0 4.0 28 46
r 2.402256 0 2 tcp 552 ------- 2 0.0 4.0 29 47
+ 2.402256 2 3 tcp 552 ------- 2 0.0 4.0 29 47
r 2.40424 4 3 ack 40 ------- 2 4.0 0.0 20 45
+ 2.40424 3 2 ack 40 ------- 2 4.0 0.0 20 45
- 2.40424 3 2 ack 40 ------- 2 4.0 0.0 20 45
r 2.404464 0 2 tcp 552 ------- 2 0.0 4.0 30 48
+ 2.404464 2 3 tcp 552 ------- 2 0.0 4.0 30 48
r 2.414768 2 3 tcp 552 ------- 2 0.0 4.0 24 41
+ 2.414768 3 4 tcp 552 ------- 2 0.0 4.0 24 41
- 2.414768 3 4 tcp 552 ------- 2 0.0 4.0 24 41
- 2.414768 2 3 tcp 552 ------- 2 0.0 4.0 29 47
r 2.429488 2 3 tcp 552 ------- 2 0.0 4.0 25 42
+ 2.429488 3 4 tcp 552 ------- 2 0.0 4.0 25 42
- 2.429488 3 4 tcp 552 ------- 2 0.0 4.0 25 42
- 2.429488 2 3 tcp 552 ------- 2 0.0 4.0 30 48
r 2.43416 3 4 tcp 552 ------- 2 0.0 4.0 22 39
+ 2.43416 4 3 ack 40 ------- 2 4.0 0.0 22 49
- 2.43416 4 3 ack 40 ------- 2 4.0 0.0 22 49
r 2.444208 2 3 tcp 552 ------- 2 0.0 4.0 26 43
+ 2.444208 3 4 tcp 552 ------- 2 0.0 4.0 26 43
- 2.444208 3 4 tcp 552 ------- 2 0.0 4.0 26 43
r 2.44888 3 4 tcp 552 ------- 2 0.0 4.0 23 40
r 2.458928 2 3 tcp 552 ------- 2 0.0 4.0 27 44
+ 2.458928 3 4 tcp 552 ------- 2 0.0 4.0 27 44
- 2.458928 3 4 tcp 552 ------- 2 0.0 4.0 27 44
r 2.4636 3 4 tcp 552 ------- 2 0.0 4.0 24 41
+ 2.4636 4 3 ack 40 ------- 2 4.0 0.0 24 50
- 2.4636 4 3 ack 40 ------- 2 4.0 0.0 24 50
r 2.4748 4 3 ack 40 ------- 2 4.0 0.0 22 49
+ 2.4748 3 2 ack 40 ------- 2 4.0 0.0 22 49
- 2.4748 3 2 ack 40 ------- 2 4.0 0.0 22 49
r 2.47832 3 4 tcp 552 ------- 2 0.0 4.0 25 42
r 2.49304 3 4 tcp 552 ------- 2 0.0 4.0 26 43
+ 2.49304 4 3 ack 40 ------- 2 4.0 0.0 26 51
- 2.49304 4 3 ack 40 ------- 2 4.0 0.0 26 51
r 2.50424 4 3 ack 40 ------- 2 4.0 0.0 24 50
+ 2.50424 3 2 ack 40 ------- 2 4.0 0.0 24 50
- 2.50424 3 2 ack 40 ------- 2 4.0 0.0 24 50
r 2.505307 3 2 ack 40 ------- 2 4.0 0.0 20 45
+ 2.505307 2 0 ack 40 ------- 2 4.0 0.0 20 45
- 2.505307 2 0 ack 40 ------- 2 4.0 0.0 20 45
r 2.50776 3 4 tcp 552 ------- 2 0.0 4.0 27 44
r 2.514768 2 3 tcp 552 ------- 2 0.0 4.0 28 46
+ 2.514768 3 4 tcp 552 ------- 2 0.0 4.0 28 46
- 2.514768 3 4 tcp 552 ------- 2 0.0 4.0 28 46
r 2.515467 2 0 ack 40 ------- 2 4.0 0.0 20 45
+ 2.515467 0 2 tcp 552 ------- 2 0.0 4.0 31 52
- 2.515467 0 2 tcp 552 ------- 2 0.0 4.0 31 52
+ 2.515467 0 2 tcp 552 ------- 2 0.0 4.0 32 53
+ 2.515467 0 2 tcp 552 ------- 2 0.0 4.0 33 54
- 2.517675 0 2 tcp 552 ------- 2 0.0 4.0 32 53
- 2.519883 0 2 tcp 552 ------- 2 0.0 4.0 33 54
r 2.527675 0 2 tcp 552 ------- 2 0.0 4.0 31 52
+ 2.527675 2 3 tcp 552 ------- 2 0.0 4.0 31 52
- 2.527675 2 3 tcp 552 ------- 2 0.0 4.0 31 52
r 2.529488 2 3 tcp 552 ------- 2 0.0 4.0 29 47
+ 2.529488 3 4 tcp 552 ------- 2 0.0 4.0 29 47
- 2.529488 3 4 tcp 552 ------- 2 0.0 4.0 29 47
r 2.529883 0 2 tcp 552 ------- 2 0.0 4.0 32 53
+ 2.529883 2 3 tcp 552 ------- 2 0.0 4.0 32 53
r 2.532091 0 2 tcp 552 ------- 2 0.0 4.0 33 54
+ 2.532091 2 3 tcp 552 ------- 2 0.0 4.0 33 54
r 2.53368 4 3 ack 40 ------- 2 4.0 0.0 26 51
+ 2.53368 3 2 ack 40 ------- 2 4.0 0.0 26 51
- 2.53368 3 2 ack 40 ------- 2 4.0 0.0 26 51
- 2.542395 2 3 tcp 552 ------- 2 0.0 4.0 32 53
r 2.544208 2 3 tcp 552 ------- 2 0.0 4.0 30 48
+ 2.544208 3 4 tcp 552 ------- 2 0.0 4.0 30 48
- 2.544208 3 4 tcp 552 ------- 2 0.0 4.0 30 48
- 2.557115 2 3 tcp 552 ------- 2 0.0 4.0 33 54
+ 2.5576 1 2 cbr 1000 ------- 1 1.0 5.0 6 55
- 2.5576 1 2 cbr 1000 ------- 1 1.0 5.0 6 55
+ 2.5576 1 2 cbr 24 ------- 1 1.0 5.0 7 56
- 2.5616 1 2 cbr 24 ------- 1 1.0 5.0 7 56
r 2.5636 3 4 tcp 552 ------- 2 0.0 4.0 28 46
+ 2.5636 4 3 ack 40 ------- 2 4.0 0.0 28 57
- 2.5636 4 3 ack 40 ------- 2 4.0 0.0 28 57
r 2.5716 1 2 cbr 1000 ------- 1 1.0 5.0 6 55
+ 2.5716 2 3 cbr 1000 ------- 1 1.0 5.0 6 55
r 2.571696 1 2 cbr 24 ------- 1 1.0 5.0 7 56
+ 2.571696 2 3 cbr 24 ------- 1 1.0 5.0 7 56
- 2.571835 2 3 cbr 1000 ------- 1 1.0 5.0 6 55
r 2.575867 3 2 ack 40 ------- 2 4.0 0.0 22 49
+ 2.575867 2 0 ack 40 ------- 2 4.0 0.0 22 49
- 2.575867 2 0 ack 40 ------- 2 4.0 0.0 22 49
r 2.57832 3 4 tcp 552 ------- 2 0.0 4.0 29 47
r 2.586027 2 0 ack 40 ------- 2 4.0 0.0 22 49
+ 2.586027 0 2 tcp 552 ------- 2 0.0 4.0 34 58
- 2.586027 0 2 tcp 552 ------- 2 0.0 4.0 34 58
+ 2.586027 0 2 tcp 552 ------- 2 0.0 4.0 35 59
+ 2.586027 0 2 tcp 552 ------- 2 0.0 4.0 36 60
- 2.588235 0 2 tcp 552 ------- 2 0.0 4.0 35 59
- 2.590443 0 2 tcp 552 ------- 2 0.0 4.0 36 60
r 2.59304 3 4 tcp 552 ------- 2 0.0 4.0 30 48
+ 2.59304 4 3 ack 40 ------- 2 4.0 0.0 30 61
- 2.59304 4 3 ack 40 ------- 2 4.0 0.0 30 61
r 2.598235 0 2 tcp 552 ------- 2 0.0 4.0 34 58
+ 2.598235 2 3 tcp 552 ------- 2 0.0 4.0 34 58
- 2.598501 2 3 cbr 24 ------- 1 1.0 5.0 7 56
- 2.599141 2 3 tcp 552 ------- 2 0.0 4.0 34 58
r 2.600443 0 2 tcp 552 ------- 2 0.0 4.0 35 59
+ 2.600443 2 3 tcp 552 ------- 2 0.0 4.0 35 59
r 2.602651 0 2 tcp 552 ------- 2 0.0 4.0 36 60
+ 2.602651 2 3 tcp 552 ------- 2 0.0 4.0 36 60
r 2.60424 4 3 ack 40 ------- 2 4.0 0.0 28 57
+ 2.60424 3 2 ack 40 ------- 2 4.0 0.0 28 57
- 2.60424 3 2 ack 40 ------- 2 4.0 0.0 28 57
r 2.605307 3 2 ack 40 ------- 2 4.0 0.0 24 50
+ 2.605307 2 0 ack 40 ------- 2 4.0 0.0 24 50
- 2.605307 2 0 ack 40 ------- 2 4.0 0.0 24 50
- 2.613861 2 3 tcp 552 ------- 2 0.0 4.0 35 59
r 2.615467 2 0 ack 40 ------- 2 4.0 0.0 24 50
+ 2.615467 0 2 tcp 552 ------- 2 0.0 4.0 37 62
- 2.615467 0 2 tcp 552 ------- 2 0.0 4.0 37 62
+ 2.615467 0 2 tcp 552 ------- 2 0.0 4.0 38 63
+ 2.615467 0 2 tcp 552 ------- 2 0.0 4.0 39 64
- 2.617675 0 2 tcp 552 ------- 2 0.0 4.0 38 63
- 2.619883 0 2 tcp 552 ------- 2 0.0 4.0 39 64
r 2.627675 0 2 tcp 552 ------- 2 0.0 4.0 37 62
+ 2.627675 2 3 tcp 552 ------- 2 0.0 4.0 37 62
- 2.628581 2 3 tcp 552 ------- 2 0.0 4.0 36 60
r 2.629883 0 2 tcp 552 ------- 2 0.0 4.0 38 63
+ 2.629883 2 3 tcp 552 ------- 2 0.0 4.0 38 63
r 2.632091 0 2 tcp 552 ------- 2 0.0 4.0 39 64
+ 2.632091 2 3 tcp 552 ------- 2 0.0 4.0 39 64
r 2.63368 4 3 ack 40 ------- 2 4.0 0.0 30 61
+ 2.63368 3 2 ack 40 ------- 2 4.0 0.0 30 61
- 2.63368 3 2 ack 40 ------- 2 4.0 0.0 30 61
r 2.634747 3 2 ack 40 ------- 2 4.0 0.0 26 51
+ 2.634747 2 0 ack 40 ------- 2 4.0 0.0 26 51
- 2.634747 2 0 ack 40 ------- 2 4.0 0.0 26 51
r 2.642395 2 3 tcp 552 ------- 2 0.0 4.0 31 52
+ 2.642395 3 4 tcp 552 ------- 2 0.0 4.0 31 52
- 2.642395 3 4 tcp 552 ------- 2 0.0 4.0 31 52
- 2.643301 2 3 tcp 552 ------- 2 0.0 4.0 37 62
r 2.644907 2 0 ack 40 ------- 2 4.0 0.0 26 51
+ 2.644907 0 2 tcp 552 ------- 2 0.0 4.0 40 65
- 2.644907 0 2 tcp 552 ------- 2 0.0 4.0 40 65
+ 2.644907 0 2 tcp 552 ------- 2 0.0 4.0 41 66
+ 2.644907 0 2 tcp 552 ------- 2 0.0 4.0 42 67
- 2.647115 0 2 tcp 552 ------- 2 0.0 4.0 41 66
- 2.649323 0 2 tcp 552 ------- 2 0.0 4.0 42 67
r 2.657115 2 3 tcp 552 ------- 2 0.0 4.0 32 53
+ 2.657115 3 4 tcp 552 ------- 2 0.0 4.0 32 53
- 2.657115 3 4 tcp 552 ------- 2 0.0 4.0 32 53
r 2.657115 0 2 tcp 552 ------- 2 0.0 4.0 40 65
+ 2.657115 2 3 tcp 552 ------- 2 0.0 4.0 40 65
- 2.658021 2 3 tcp 552 ------- 2 0.0 4.0 38 63
r 2.659323 0 2 tcp 552 ------- 2 0.0 4.0 41 66
+ 2.659323 2 3 tcp 552 ------- 2 0.0 4.0 41 66
r 2.661531 0 2 tcp 552 ------- 2 0.0 4.0 42 67
+ 2.661531 2 3 tcp 552 ------- 2 0.0 4.0 42 67
r 2.671835 2 3 tcp 552 ------- 2 0.0 4.0 33 54
+ 2.671835 3 4 tcp 552 ------- 2 0.0 4.0 33 54
- 2.671835 3 4 tcp 552 ------- 2 0.0 4.0 33 54
- 2.672741 2 3 tcp 552 ------- 2 0.0 4.0 39 64
- 2.687461 2 3 tcp 552 ------- 2 0.0 4.0 40 65
r 2.691227 3 4 tcp 552 ------- 2 0.0 4.0 31 52
r 2.698501 2 3 cbr 1000 ------- 1 1.0 5.0 6 55
+ 2.698501 3 5 cbr 1000 ------- 1 1.0 5.0 6 55
- 2.698501 3 5 cbr 1000 ------- 1 1.0 5.0 6 55
r 2.699141 2 3 cbr 24 ------- 1 1.0 5.0 7 56
+ 2.699141 3 5 cbr 24 ------- 1 1.0 5.0 7 56
- 2.702181 2 3 tcp 552 ------- 2 0.0 4.0 41 66
r 2.705307 3 2 ack 40 ------- 2 4.0 0.0 28 57
+ 2.705307 2 0 ack 40 ------- 2 4.0 0.0 28 57
- 2.705307 2 0 ack 40 ------- 2 4.0 0.0 28 57
r 2.705947 3 4 tcp 552 ------- 2 0.0 4.0 32 53
+ 2.705947 4 3 ack 40 ------- 2 4.0 0.0 32 68
- 2.705947 4 3 ack 40 ------- 2 4.0 0.0 32 68
r 2.713861 2 3 tcp 552 ------- 2 0.0 4.0 34 58
+ 2.713861 3 4 tcp 552 ------- 2 0.0 4.0 34 58
- 2.713861 3 4 tcp 552 ------- 2 0.0 4.0 34 58
- 2.714501 3 5 cbr 24 ------- 1 1.0 5.0 7 56
r 2.715467 2 0 ack 40 ------- 2 4.0 0.0 28 57
+ 2.715467 0 2 tcp 552 ------- 2 0.0 4.0 43 69
- 2.715467 0 2 tcp 552 ------- 2 0.0 4.0 43 69
+ 2.715467 0 2 tcp 552 ------- 2 0.0 4.0 44 70
+ 2.715467 0 2 tcp 552 ------- 2 0.0 4.0 45 71
- 2.716901 2 3 tcp 552 ------- 2 0.0 4.0 42 67
- 2.717675 0 2 tcp 552 ------- 2 0.0 4.0 44 70
- 2.719883 0 2 tcp 552 ------- 2 0.0 4.0 45 71
r 2.720667 3 4 tcp 552 ------- 2 0.0 4.0 33 54
r 2.727675 0 2 tcp 552 ------- 2 0.0 4.0 43 69
+ 2.727675 2 3 tcp 552 ------- 2 0.0 4.0 43 69
r 2.728581 2 3 tcp 552 ------- 2 0.0 4.0 35 59
+ 2.728581 3 4 tcp 552 ------- 2 0.0 4.0 35 59
- 2.728581 3 4 tcp 552 ------- 2 0.0 4.0 35 59
r 2.729883 0 2 tcp 552 ------- 2 0.0 4.0 44 70
+ 2.729883 2 3 tcp 552 ------- 2 0.0 4.0 44 70
- 2.731621 2 3 tcp 552 ------- 2 0.0 4.0 43 69
r 2.732091 0 2 tcp 552 ------- 2 0.0 4.0 45 71
+ 2.732091 2 3 tcp 552 ------- 2 0.0 4.0 45 71
r 2.734747 3 2 ack 40 ------- 2 4.0 0.0 30 61
+ 2.734747 2 0 ack 40 ------- 2 4.0 0.0 30 61
- 2.734747 2 0 ack 40 ------- 2 4.0 0.0 30 61
r 2.743301 2 3 tcp 552 ------- 2 0.0 4.0 36 60
+ 2.743301 3 4 tcp 552 ------- 2 0.0 4.0 36 60
- 2.743301 3 4 tcp 552 ------- 2 0.0 4.0 36 60
r 2.744907 2 0 ack 40 ------- 2 4.0 0.0 30 61
+ 2.744907 0 2 tcp 552 ------- 2 0.0 4.0 46 72
- 2.744907 0 2 tcp 552 ------- 2 0.0 4.0 46 72
+ 2.744907 0 2 tcp 552 ------- 2 0.0 4.0 47 73
+ 2.744907 0 2 tcp 552 ------- 2 0.0 4.0 48 74
- 2.746341 2 3 tcp 552 ------- 2 0.0 4.0 44 70
r 2.746587 4 3 ack 40 ------- 2 4.0 0.0 32 68
+ 2.746587 3 2 ack 40 ------- 2 4.0 0.0 32 68
- 2.746587 3 2 ack 40 ------- 2 4.0 0.0 32 68
- 2.747115 0 2 tcp 552 ------- 2 0.0 4.0 47 73
- 2.749323 0 2 tcp 552 ------- 2 0.0 4.0 48 74
r 2.754501 3 5 cbr 1000 ------- 1 1.0 5.0 6 55
r 2.754885 3 5 cbr 24 ------- 1 1.0 5.0 7 56
r 2.757115 0 2 tcp 552 ------- 2 0.0 4.0 46 72
+ 2.757115 2 3 tcp 552 ------- 2 0.0 4.0 46 72
r 2.758021 2 3 tcp 552 ------- 2 0.0 4.0 37 62
+ 2.758021 3 4 tcp 552 ------- 2 0.0 4.0 37 62
- 2.758021 3 4 tcp 552 ------- 2 0.0 4.0 37 62
r 2.759323 0 2 tcp 552 ------- 2 0.0 4.0 47 73
+ 2.759323 2 3 tcp 552 ------- 2 0.0 4.0 47 73
- 2.761061 2 3 tcp 552 ------- 2 0.0 4.0 45 71
r 2.761531 0 2 tcp 552 ------- 2 0.0 4.0 48 74
+ 2.761531 2 3 tcp 552 ------- 2 0.0 4.0 48 74
r 2.762693 3 4 tcp 552 ------- 2 0.0 4.0 34 58
+ 2.762693 4 3 ack 40 ------- 2 4.0 0.0 34 75
- 2.762693 4 3 ack 40 ------- 2 4.0 0.0 34 75
r 2.772741 2 3 tcp 552 ------- 2 0.0 4.0 38 63
+ 2.772741 3 4 tcp 552 ------- 2 0.0 4.0 38 63
- 2.772741 3 4 tcp 552 ------- 2 0.0 4.0 38 63
- 2.775781 2 3 tcp 552 ------- 2 0.0 4.0 46 72
r 2.777413 3 4 tcp 552 ------- 2 0.0 4.0 35 59
r 2.787461 2 3 tcp 552 ------- 2 0.0 4.0 39 64
+ 2.787461 3 4 tcp 552 ------- 2 0.0 4.0 39 64
- 2.787461 3 4 tcp 552 ------- 2 0.0 4.0 39 64
- 2.790501 2 3 tcp 552 ------- 2 0.0 4.0 47 73
r 2.792133 3 4 tcp 552 ------- 2 0.0 4.0 36 60
+ 2.792133 4 3 ack 40 ------- 2 4.0 0.0 36 76
- 2.792133 4 3 ack 40 ------- 2 4.0 0.0 36 76
r 2.802181 2 3 tcp 552 ------- 2 0.0 4.0 40 65
+ 2.802181 3 4 tcp 552 ------- 2 0.0 4.0 40 65
- 2.802181 3 4 tcp 552 ------- 2 0.0 4.0 40 65
r 2.803333 4 3 ack 40 ------- 2 4.0 0.0 34 75
+ 2.803333 3 2 ack 40 ------- 2 4.0 0.0 34 75
- 2.803333 3 2 ack 40 ------- 2 4.0 0.0 34 75
- 2.805221 2 3 tcp 552 ------- 2 0.0 4.0 48 74
r 2.806853 3 4 tcp 552 ------- 2 0.0 4.0 37 62
r 2.816901 2 3 tcp 552 ------- 2 0.0 4.0 41 66
+ 2.816901 3 4 tcp 552 ------- 2 0.0 4.0 41 66
- 2.816901 3 4 tcp 552 ------- 2 0.0 4.0 41 66
r 2.821573 3 4 tcp 552 ------- 2 0.0 4.0 38 63
+ 2.821573 4 3 ack 40 ------- 2 4.0 0.0 38 77
- 2.821573 4 3 ack 40 ------- 2 4.0 0.0 38 77
r 2.831621 2 3 tcp 552 ------- 2 0.0 4.0 42 67
+ 2.831621 3 4 tcp 552 ------- 2 0.0 4.0 42 67
- 2.831621 3 4 tcp 552 ------- 2 0.0 4.0 42 67