V -t * -v 1.0a5 -a 0
A -t * -n 1 -p 0 -o 0x7fffffff -c 30 -a 1
A -t * -h 1 -m 1073741823 -s 0
c -t * -i 1 -n blue
c -t * -i 2 -n red
n -t * -a 4 -s 4 -S UP -v circle -c black -i black
n -t * -a 0 -s 0 -S UP -v circle -c black -i black
n -t * -a 5 -s 5 -S UP -v circle -c black -i black
n -t * -a 1 -s 1 -S UP -v circle -c black -i black
n -t * -a 2 -s 2 -S UP -v circle -c black -i black
n -t * -a 3 -s 3 -S UP -v circle -c black -i black
l -t * -s 0 -d 2 -S UP -r 2000000 -D 0.01 -c black -o right-up
l -t * -s 1 -d 2 -S UP -r 2000000 -D 0.01 -c black -o right-down
l -t * -s 2 -d 3 -S UP -r 300000 -D 0.10000000000000001 -c black -o right
l -t * -s 3 -d 4 -S UP -r 500000 -D 0.040000000000000001 -c black -o right-up
l -t * -s 3 -d 5 -S UP -r 500000 -D 0.040000000000000001 -c black -o right-down
+ -t 1 -s 0 -d 2 -p tcp -e 40 -c 2 -i 6 -a 2 -x {0.0 4.0 0 ------- null}
- -t 1 -s 0 -d 2 -p tcp -e 40 -c 2 -i 6 -a 2 -x {0.0 4.0 0 ------- null}
h -t 1 -s 0 -d 2 -p tcp -e 40 -c 2 -i 6 -a 2 -x {0.0 4.0 -1 ------- null}
r -t 1.01016 -s 0 -d 2 -p tcp -e 40 -c 2 -i 6 -a 2 -x {0.0 4.0 0 ------- null}
+ -t 1.01016 -s 2 -d 3 -p tcp -e 40 -c 2 -i 6 -a 2 -x {0.0 4.0 0 ------- null}
- -t 1.01016 -s 2 -d 3 -p tcp -e 40 -c 2 -i 6 -a 2 -x {0.0 4.0 0 ------- null}
h -t 1.01016 -s 2 -d 3 -p tcp -e 40 -c 2 -i 6 -a 2 -x {0.0 4.0 -1 ------- null}
r -t 1.11122666666667 -s 2 -d 3 -p tcp -e 40 -c 2 -i 6 -a 2 -x {0.0 4.0 0 ------- null}
+ -t 1.11122666666667 -s 3 -d 4 -p tcp -e 40 -c 2 -i 6 -a 2 -x {0.0 4.0 0 ------- null}
- -t 1.11122666666667 -s 3 -d 4 -p tcp -e 40 -c 2 -i 6 -a 2 -x {0.0 4.0 0 ------- null}
h -t 1.11122666666667 -s 3 -d 4 -p tcp -e 40 -c 2 -i 6 -a 2 -x {0.0 4.0 -1 ------- null}
r -t 1.15186666666667 -s 3 -d 4 -p tcp -e 40 -c 2 -i 6 -a 2 -x {0.0 4.0 0 ------- null}
+ -t 1.15186666666667 -s 4 -d 3 -p ack -e 40 -c 2 -i 9 -a 2 -x {4.0 0.0 0 ------- null}
- -t 1.15186666666667 -s 4 -d 3 -p ack -e 40 -c 2 -i 9 -a 2 -x {4.0 0.0 0 ------- null}
h -t 1.15186666666667 -s 4 -d 3 -p ack -e 40 -c 2 -i 9 -a 2 -x {4.0 0.0 -1 ------- null}
r -t 1.19250666666667 -s 4 -d 3 -p ack -e 40 -c 2 -i 9 -a 2 -x {4.0 0.0 0 ------- null}
+ -t 1.19250666666667 -s 3 -d 2 -p ack -e 40 -c 2 -i 9 -a 2 -x {4.0 0.0 0 ------- null}
- -t 1.19250666666667 -s 3 -d 2 -p ack -e 40 -c 2 -i 9 -a 2 -x {4.0 0.0 0 ------- null}
h -t 1.19250666666667 -s 3 -d 2 -p ack -e 40 -c 2 -i 9 -a 2 -x {4.0 0.0 -1 ------- null}
r -t 1.29357333333333 -s 3 -d 2 -p ack -e 40 -c 2 -i 9 -a 2 -x {4.0 0.0 0 ------- null}
+ -t 1.29357333333333 -s 2 -d 0 -p ack -e 40 -c 2 -i 9 -a 2 -x {4.0 0.0 0 ------- null}
- -t 1.29357333333333 -s 2 -d 0 -p ack -e 40 -c 2 -i 9 -a 2 -x {4.0 0.0 0 ------- null}
h -t 1.29357333333333 -s 2 -d 0 -p ack -e 40 -c 2 -i 9 -a 2 -x {4.0 0.0 -1 ------- null}
r -t 1.30373333333333 -s 2 -d 0 -p ack -e 40 -c 2 -i 9 -a 2 -x {4.0 0.0 0 ------- null}
+ -t 1.30373333333333 -s 0 -d 2 -p tcp -e 552 -c 2 -i 10 -a 2 -x {0.0 4.0 1 ------- null}
- -t 1.30373333333333 -s 0 -d 2 -p tcp -e 552 -c 2 -i 10 -a 2 -x {0.0 4.0 1 ------- null}
h -t 1.30373333333333 -s 0 -d 2 -p tcp -e 552 -c 2 -i 10 -a 2 -x {0.0 4.0 -1 ------- null}
+ -t 1.30373333333333 -s 0 -d 2 -p tcp -e 552 -c 2 -i 11 -a 2 -x {0.0 4.0 2 ------- null}
- -t 1.30594133333333 -s 0 -d 2 -p tcp -e 552 -c 2 -i 11 -a 2 -x {0.0 4.0 2 ------- null}
h -t 1.30594133333333 -s 0 -d 2 -p tcp -e 552 -c 2 -i 11 -a 2 -x {0.0 4.0 -1 ------- null}
r -t 1.31594133333333 -s 0 -d 2 -p tcp -e 552 -c 2 -i 10 -a 2 -x {0.0 4.0 1 ------- null}
+ -t 1.31594133333333 -s 2 -d 3 -p tcp -e 552 -c 2 -i 10 -a 2 -x {0.0 4.0 1 ------- null}
- -t 1.31594133333333 -s 2 -d 3 -p tcp -e 552 -c 2 -i 10 -a 2 -x {0.0 4.0 1 ------- null}
h -t 1.31594133333333 -s 2 -d 3 -p tcp -e 552 -c 2 -i 10 -a 2 -x {0.0 4.0 -1 ------- null}
r -t 1.31814933333333 -s 0 -d 2 -p tcp -e 552 -c 2 -i 11 -a 2 -x {0.0 4.0 2 ------- null}
+ -t 1.31814933333333 -s 2 -d 3 -p tcp -e 552 -c 2 -i 11 -a 2 -x {0.0 4.0 2 ------- null}
- -t 1.33066133333333 -s 2 -d 3 -p tcp -e 552 -c 2 -i 11 -a 2 -x {0.0 4.0 2 ------- null}
h -t 1.33066133333333 -s 2 -d 3 -p tcp -e 552 -c 2 -i 11 -a 2 -x {0.0 4.0 -1 ------- null}
r -t 1.43066133333333 -s 2 -d 3 -p tcp -e 552 -c 2 -i 10 -a 2 -x {0.0 4.0 1 ------- null}
+ -t 1.43066133333333 -s 3 -d 4 -p tcp -e 552 -c 2 -i 10 -a 2 -x {0.0 4.0 1 ------- null}
- -t 1.43066133333333 -s 3 -d 4 -p tcp -e 552 -c 2 -i 10 -a 2 -x {0.0 4.0 1 ------- null}
h -t 1.43066133333333 -s 3 -d 4 -p tcp -e 552 -c 2 -i 10 -a 2 -x {0.0 4.0 -1 ------- null}
r -t 1.44538133333333 -s 2 -d 3 -p tcp -e 552 -c 2 -i 11 -a 2 -x {0.0 4.0 2 ------- null}
+ -t 1.44538133333333 -s 3 -d 4 -p tcp -e 552 -c 2 -i 11 -a 2 -x {0.0 4.0 2 ------- null}
- -t 1.44538133333333 -s 3 -d 4 -p tcp -e 552 -c 2 -i 11 -a 2 -x {0.0 4.0 2 ------- null}
h -t 1.44538133333333 -s 3 -d 4 -p tcp -e 552 -c 2 -i 11 -a 2 -x {0.0 4.0 -1 ------- null}
r -t 1.47949333333333 -s 3 -d 4 -p tcp -e 552 -c 2 -i 10 -a 2 -x {0.0 4.0 1 ------- null}
r -t 1.49421333333333 -s 3 -d 4 -p tcp -e 552 -c 2 -i 11 -a 2 -x {0.0 4.0 2 ------- null}
+ -t 1.49421333333333 -s 4 -d 3 -p ack -e 40 -c 2 -i 12 -a 2 -x {4.0 0.0 2 ------- null}
- -t 1.49421333333333 -s 4 -d 3 -p ack -e 40 -c 2 -i 12 -a 2 -x {4.0 0.0 2 ------- null}
h -t 1.49421333333333 -s 4 -d 3 -p ack -e 40 -c 2 -i 12 -a 2 -x {4.0 0.0 -1 ------- null}
r -t 1.53485333333333 -s 4 -d 3 -p ack -e 40 -c 2 -i 12 -a 2 -x {4.0 0.0 2 ------- null}
+ -t 1.53485333333333 -s 3 -d 2 -p ack -e 40 -c 2 -i 12 -a 2 -x {4.0 0.0 2 ------- null}
- -t 1.53485333333333 -s 3 -d 2 -p ack -e 40 -c 2 -i 12 -a 2 -x {4.0 0.0 2 ------- null}
h -t 1.53485333333333 -s 3 -d 2 -p ack -e 40 -c 2 -i 12 -a 2 -x {4.0 0.0 -1 ------- null}
r -t 1.63592 -s 3 -d 2 -p ack -e 40 -c 2 -i 12 -a 2 -x {4.0 0.0 2 ------- null}
+ -t 1.63592 -s 2 -d 0 -p ack -e 40 -c 2 -i 12 -a 2 -x {4.0 0.0 2 ------- null}
- -t 1.63592 -s 2 -d 0 -p ack -e 40 -c 2 -i 12 -a 2 -x {4.0 0.0 2 ------- null}
h -t 1.63592 -s 2 -d 0 -p ack -e 40 -c 2 -i 12 -a 2 -x {4.0 0.0 -1 ------- null}
r -t 1.64608 -s 2 -d 0 -p ack -e 40 -c 2 -i 12 -a 2 -x {4.0 0.0 2 ------- null}
+ -t 1.64608 -s 0 -d 2 -p tcp -e 552 -c 2 -i 13 -a 2 -x {0.0 4.0 3 ------- null}
- -t 1.64608 -s 0 -d 2 -p tcp -e 552 -c 2 -i 13 -a 2 -x {0.0 4.0 3 ------- null}
h -t 1.64608 -s 0 -d 2 -p tcp -e 552 -c 2 -i 13 -a 2 -x {0.0 4.0 -1 ------- null}
+ -t 1.64608 -s 0 -d 2 -p tcp -e 552 -c 2 -i 14 -a 2 -x {0.0 4.0 4 ------- null}
+ -t 1.64608 -s 0 -d 2 -p tcp -e 552 -c 2 -i 15 -a 2 -x {0.0 4.0 5 ------- null}
- -t 1.648288 -s 0 -d 2 -p tcp -e 552 -c 2 -i 14 -a 2 -x {0.0 4.0 4 ------- null}
h -t 1.648288 -s 0 -d 2 -p tcp -e 552 -c 2 -i 14 -a 2 -x {0.0 4.0 -1 ------- null}
- -t 1.650496 -s 0 -d 2 -p tcp -e 552 -c 2 -i 15 -a 2 -x {0.0 4.0 5 ------- null}
h -t 1.650496 -s 0 -d 2 -p tcp -e 552 -c 2 -i 15 -a 2 -x {0.0 4.0 -1 ------- null}
r -t 1.658288 -s 0 -d 2 -p tcp -e 552 -c 2 -i 13 -a 2 -x {0.0 4.0 3 ------- null}
+ -t 1.658288 -s 2 -d 3 -p tcp -e 552 -c 2 -i 13 -a 2 -x {0.0 4.0 3 ------- null}
- -t 1.658288 -s 2 -d 3 -p tcp -e 552 -c 2 -i 13 -a 2 -x {0.0 4.0 3 ------- null}
h -t 1.658288 -s 2 -d 3 -p tcp -e 552 -c 2 -i 13 -a 2 -x {0.0 4.0 -1 ------- null}
r -t 1.660496 -s 0 -d 2 -p tcp -e 552 -c 2 -i 14 -a 2 -x {0.0 4.0 4 ------- null}
+ -t 1.660496 -s 2 -d 3 -p tcp -e 552 -c 2 -i 14 -a 2 -x {0.0 4.0 4 ------- null}
r -t 1.662704 -s 0 -d 2 -p tcp -e 552 -c 2 -i 15 -a 2 -x {0.0 4.0 5 ------- null}
+ -t 1.662704 -s 2 -d 3 -p tcp -e 552 -c 2 -i 15 -a 2 -x {0.0 4.0 5 ------- null}
- -t 1.673008 -s 2 -d 3 -p tcp -e 552 -c 2 -i 14 -a 2 -x {0.0 4.0 4 ------- null}
h -t 1.673008 -s 2 -d 3 -p tcp -e 552 -c 2 -i 14 -a 2 -x {0.0 4.0 -1 ------- null}
- -t 1.687728 -s 2 -d 3 -p tcp -e 552 -c 2 -i 15 -a 2 -x {0.0 4.0 5 ------- null}
h -t 1.687728 -s 2 -d 3 -p tcp -e 552 -c 2 -i 15 -a 2 -x {0.0 4.0 -1 ------- null}
r -t 1.773008 -s 2 -d 3 -p tcp -e 552 -c 2 -i 13 -a 2 -x {0.0 4.0 3 ------- null}
+ -t 1.773008 -s 3 -d 4 -p tcp -e 552 -c 2 -i 13 -a 2 -x {0.0 4.0 3 ------- null}
- -t 1.773008 -s 3 -d 4 -p tcp -e 552 -c 2 -i 13 -a 2 -x {0.0 4.0 3 ------- null}
h -t 1.773008 -s 3 -d 4 -p tcp -e 552 -c 2 -i 13 -a 2 -x {0.0 4.0 -1 ------- null}
r -t 1.787728 -s 2 -d 3 -p tcp -e 552 -c 2 -i 14 -a 2 -x {0.0 4.0 4 ------- null}
+ -t 1.787728 -s 3 -d 4 -p tcp -e 552 -c 2 -i 14 -a 2 -x {0.0 4.0 4 ------- null}
- -t 1.787728 -s 3 -d 4 -p tcp -e 552 -c 2 -i 14 -a 2 -x {0.0 4.0 4 ------- null}
h -t 1.787728 -s 3 -d 4 -p tcp -e 552 -c 2 -i 14 -a 2 -x {0.0 4.0 -1 ------- null}
r -t 1.802448 -s 2 -d 3 -p tcp -e 552 -c 2 -i 15 -a 2 -x {0.0 4.0 5 ------- null}
+ -t 1.802448 -s 3 -d 4 -p tcp -e 552 -c 2 -i 15 -a 2 -x {0.0 4.0 5 ------- null}
- -t 1.802448 -s 3 -d 4 -p tcp -e 552 -c 2 -i 15 -a 2 -x {0.0 4.0 5 ------- null}
h -t 1.802448 -s 3 -d 4 -p tcp -e 552 -c 2 -i 15 -a 2 -x {0.0 4.0 -1 ------- null}
r -t 1.82184 -s 3 -d 4 -p tcp -e 552 -c 2 -i 13 -a 2 -x {0.0 4.0 3 ------- null}
r -t 1.83656 -s 3 -d 4 -p tcp -e 552 -c 2 -i 14 -a 2 -x {0.0 4.0 4 ------- null}
+ -t 1.83656 -s 4 -d 3 -p ack -e 40 -c 2 -i 18 -a 2 -x {4.0 0.0 4 ------- null}
- -t 1.83656 -s 4 -d 3 -p ack -e 40 -c 2 -i 18 -a 2 -x {4.0 0.0 4 ------- null}
h -t 1.83656 -s 4 -d 3 -p ack -e 40 -c 2 -i 18 -a 2 -x {4.0 0.0 -1 ------- null}
r -t 1.85128 -s 3 -d 4 -p tcp -e 552 -c 2 -i 15 -a 2 -x {0.0 4.0 5 ------- null}
r -t 1.8772 -s 4 -d 3 -p ack -e 40 -c 2 -i 18 -a 2 -x {4.0 0.0 4 ------- null}
+ -t 1.8772 -s 3 -d 2 -p ack -e 40 -c 2 -i 18 -a 2 -x {4.0 0.0 4 ------- null}
- -t 1.8772 -s 3 -d 2 -p ack -e 40 -c 2 -i 18 -a 2 -x {4.0 0.0 4 ------- null}
h -t 1.8772 -s 3 -d 2 -p ack -e 40 -c 2 -i 18 -a 2 -x {4.0 0.0 -1 ------- null}
+ -t 1.95128 -s 4 -d 3 -p ack -e 40 -c 2 -i 21 -a 2 -x {4.0 0.0 5 ------- null}
- -t 1.95128 -s 4 -d 3 -p ack -e 40 -c 2 -i 21 -a 2 -x {4.0 0.0 5 ------- null}
h -t 1.95128 -s 4 -d 3 -p ack -e 40 -c 2 -i 21 -a 2 -x {4.0 0.0 -1 ------- null}
r -t 1.97826666666667 -s 3 -d 2 -p ack -e 40 -c 2 -i 18 -a 2 -x {4.0 0.0 4 ------- null}
+ -t 1.97826666666667 -s 2 -d 0 -p ack -e 40 -c 2 -i 18 -a 2 -x {4.0 0.0 4 ------- null}
- -t 1.97826666666667 -s 2 -d 0 -p ack -e 40 -c 2 -i 18 -a 2 -x {4.0 0.0 4 ------- null}
h -t 1.97826666666667 -s 2 -d 0 -p ack -e 40 -c 2 -i 18 -a 2 -x {4.0 0.0 -1 ------- null}
r -t 1.98842666666667 -s 2 -d 0 -p ack -e 40 -c 2 -i 18 -a 2 -x {4.0 0.0 4 ------- null}
+ -t 1.98842666666667 -s 0 -d 2 -p tcp -e 552 -c 2 -i 22 -a 2 -x {0.0 4.0 6 ------- null}
- -t 1.98842666666667 -s 0 -d 2 -p tcp -e 552 -c 2 -i 22 -a 2 -x {0.0 4.0 6 ------- null}
h -t 1.98842666666667 -s 0 -d 2 -p tcp -e 552 -c 2 -i 22 -a 2 -x {0.0 4.0 -1 ------- null}
+ -t 1.98842666666667 -s 0 -d 2 -p tcp -e 552 -c 2 -i 23 -a 2 -x {0.0 4.0 7 ------- null}
+ -t 1.98842666666667 -s 0 -d 2 -p tcp -e 552 -c 2 -i 24 -a 2 -x {0.0 4.0 8 ------- null}
- -t 1.99063466666667 -s 0 -d 2 -p tcp -e 552 -c 2 -i 23 -a 2 -x {0.0 4.0 7 ------- null}
h -t 1.99063466666667 -s 0 -d 2 -p tcp -e 552 -c 2 -i 23 -a 2 -x {0.0 4.0 -1 ------- null}
r -t 1.99192 -s 4 -d 3 -p ack -e 40 -c 2 -i 21 -a 2 -x {4.0 0.0 5 ------- null}
+ -t 1.99192 -s 3 -d 2 -p ack -e 40 -c 2 -i 21 -a 2 -x {4.0 0.0 5 ------- null}
- -t 1.99192 -s 3 -d 2 -p ack -e 40 -c 2 -i 21 -a 2 -x {4.0 0.0 5 ------- null}
h -t 1.99192 -s 3 -d 2 -p ack -e 40 -c 2 -i 21 -a 2 -x {4.0 0.0 -1 ------- null}
- -t 1.99284266666667 -s 0 -d 2 -p tcp -e 552 -c 2 -i 24 -a 2 -x {0.0 4.0 8 ------- null}
h -t 1.99284266666667 -s 0 -d 2 -p tcp -e 552 -c 2 -i 24 -a 2 -x {0.0 4.0 -1 ------- null}
r -t 2.00063466666667 -s 0 -d 2 -p tcp -e 552 -c 2 -i 22 -a 2 -x {0.0 4.0 6 ------- null}
+ -t 2.00063466666667 -s 2 -d 3 -p tcp -e 552 -c 2 -i 22 -a 2 -x {0.0 4.0 6 ------- null}
- -t 2.00063466666667 -s 2 -d 3 -p tcp -e 552 -c 2 -i 22 -a 2 -x {0.0 4.0 6 ------- null}
h -t 2.00063466666667 -s 2 -d 3 -p tcp -e 552 -c 2 -i 22 -a 2 -x {0.0 4.0 -1 ------- null}
r -t 2.00284266666667 -s 0 -d 2 -p tcp -e 552 -c 2 -i 23 -a 2 -x {0.0 4.0 7 ------- null}
+ -t 2.00284266666667 -s 2 -d 3 -p tcp -e 552 -c 2 -i 23 -a 2 -x {0.0 4.0 7 ------- null}
r -t 2.00505066666667 -s 0 -d 2 -p tcp -e 552 -c 2 -i 24 -a 2 -x {0.0 4.0 8 ------- null}
+ -t 2.00505066666667 -s 2 -d 3 -p tcp -e 552 -c 2 -i 24 -a 2 -x {0.0 4.0 8 ------- null}
- -t 2.01535466666667 -s 2 -d 3 -p tcp -e 552 -c 2 -i 23 -a 2 -x {0.0 4.0 7 ------- null}
h -t 2.01535466666667 -s 2 -d 3 -p tcp -e 552 -c 2 -i 23 -a 2 -x {0.0 4.0 -1 ------- null}
- -t 2.03007466666667 -s 2 -d 3 -p tcp -e 552 -c 2 -i 24 -a 2 -x {0.0 4.0 8 ------- null}
h -t 2.03007466666667 -s 2 -d 3 -p tcp -e 552 -c 2 -i 24 -a 2 -x {0.0 4.0 -1 ------- null}
r -t 2.09298666666667 -s 3 -d 2 -p ack -e 40 -c 2 -i 21 -a 2 -x {4.0 0.0 5 ------- null}
+ -t 2.09298666666667 -s 2 -d 0 -p ack -e 40 -c 2 -i 21 -a 2 -x {4.0 0.0 5 ------- null}
- -t 2.09298666666667 -s 2 -d 0 -p ack -e 40 -c 2 -i 21 -a 2 -x {4.0 0.0 5 ------- null}
h -t 2.09298666666667 -s 2 -d 0 -p ack -e 40 -c 2 -i 21 -a 2 -x {4.0 0.0 -1 ------- null}
r -t 2.10314666666667 -s 2 -d 0 -p ack -e 40 -c 2 -i 21 -a 2 -x {4.0 0.0 5 ------- null}
+ -t 2.10314666666667 -s 0 -d 2 -p tcp -e 552 -c 2 -i 25 -a 2 -x {0.0 4.0 9 ------- null}
- -t 2.10314666666667 -s 0 -d 2 -p tcp -e 552 -c 2 -i 25 -a 2 -x {0.0 4.0 9 ------- null}
h -t 2.10314666666667 -s 0 -d 2 -p tcp -e 552 -c 2 -i 25 -a 2 -x {0.0 4.0 -1 ------- null}
+ -t 2.10314666666667 -s 0 -d 2 -p tcp -e 552 -c 2 -i 26 -a 2 -x {0.0 4.0 10 ------- null}
- -t 2.10535466666667 -s 0 -d 2 -p tcp -e 552 -c 2 -i 26 -a 2 -x {0.0 4.0 10 ------- null}
h -t 2.10535466666667 -s 0 -d 2 -p tcp -e 552 -c 2 -i 26 -a 2 -x {0.0 4.0 -1 ------- null}
r -t 2.11535466666667 -s 2 -d 3 -p tcp -e 552 -c 2 -i 22 -a 2 -x {0.0 4.0 6 ------- null}
+ -t 2.11535466666667 -s 3 -d 4 -p tcp -e 552 -c 2 -i 22 -a 2 -x {0.0 4.0 6 ------- null}
- -t 2.11535466666667 -s 3 -d 4 -p tcp -e 552 -c 2 -i 22 -a 2 -x {0.0 4.0 6 ------- null}
h -t 2.11535466666667 -s 3 -d 4 -p tcp -e 552 -c 2 -i 22 -a 2 -x {0.0 4.0 -1 ------- null}
r -t 2.11535466666667 -s 0 -d 2 -p tcp -e 552 -c 2 -i 25 -a 2 -x {0.0 4.0 9 ------- null}
+ -t 2.11535466666667 -s 2 -d 3 -p tcp -e 552 -c 2 -i 25 -a 2 -x {0.0 4.0 9 ------- null}
- -t 2.11535466666667 -s 2 -d 3 -p tcp -e 552 -c 2 -i 25 -a 2 -x {0.0 4.0 9 ------- null}
h -t 2.11535466666667 -s 2 -d 3 -p tcp -e 552 -c 2 -i 25 -a 2 -x {0.0 4.0 -1 ------- null}
r -t 2.11756266666667 -s 0 -d 2 -p tcp -e 552 -c 2 -i 26 -a 2 -x {0.0 4.0 10 ------- null}
+ -t 2.11756266666667 -s 2 -d 3 -p tcp -e 552 -c 2 -i 26 -a 2 -x {0.0 4.0 10 ------- null}
r -t 2.13007466666667 -s 2 -d 3 -p tcp -e 552 -c 2 -i 23 -a 2 -x {0.0 4.0 7 ------- null}
+ -t 2.13007466666667 -s 3 -d 4 -p tcp -e 552 -c 2 -i 23 -a 2 -x {0.0 4.0 7 ------- null}
- -t 2.13007466666667 -s 3 -d 4 -p tcp -e 552 -c 2 -i 23 -a 2 -x {0.0 4.0 7 ------- null}
h -t 2.13007466666667 -s 3 -d 4 -p tcp -e 552 -c 2 -i 23 -a 2 -x {0.0 4.0 -1 ------- null}
- -t 2.13007466666667 -s 2 -d 3 -p tcp -e 552 -c 2 -i 26 -a 2 -x {0.0 4.0 10 ------- null}
h -t 2.13007466666667 -s 2 -d 3 -p tcp -e 552 -c 2 -i 26 -a 2 -x {0.0 4.0 -1 ------- null}
r -t 2.14479466666667 -s 2 -d 3 -p tcp -e 552 -c 2 -i 24 -a 2 -x {0.0 4.0 8 ------- null}
+ -t 2.14479466666667 -s 3 -d 4 -p tcp -e 552 -c 2 -i 24 -a 2 -x {0.0 4.0 8 ------- null}
- -t 2.14479466666667 -s 3 -d 4 -p tcp -e 552 -c 2 -i 24 -a 2 -x {0.0 4.0 8 ------- null}
h -t 2.14479466666667 -s 3 -d 4 -p tcp -e 552 -c 2 -i 24 -a 2 -x {0.0 4.0 -1 ------- null}
r -t 2.16418666666667 -s 3 -d 4 -p tcp -e 552 -c 2 -i 22 -a 2 -x {0.0 4.0 6 ------- null}
r -t 2.17890666666667 -s 3 -d 4 -p tcp -e 552 -c 2 -i 23 -a 2 -x {0.0 4.0 7 ------- null}
+ -t 2.17890666666667 -s 4 -d 3 -p ack -e 40 -c 2 -i 27 -a 2 -x {4.0 0.0 7 ------- null}
- -t 2.17890666666667 -s 4 -d 3 -p ack -e 40 -c 2 -i 27 -a 2 -x {4.0 0.0 7 ------- null}
h -t 2.17890666666667 -s 4 -d 3 -p ack -e 40 -c 2 -i 27 -a 2 -x {4.0 0.0 -1 ------- null}
r -t 2.19362666666667 -s 3 -d 4 -p tcp -e 552 -c 2 -i 24 -a 2 -x {0.0 4.0 8 ------- null}
r -t 2.21954666666667 -s 4 -d 3 -p ack -e 40 -c 2 -i 27 -a 2 -x {4.0 0.0 7 ------- null}
+ -t 2.21954666666667 -s 3 -d 2 -p ack -e 40 -c 2 -i 27 -a 2 -x {4.0 0.0 7 ------- null}
- -t 2.21954666666667 -s 3 -d 2 -p ack -e 40 -c 2 -i 27 -a 2 -x {4.0 0.0 7 ------- null}
h -t 2.21954666666667 -s 3 -d 2 -p ack -e 40 -c 2 -i 27 -a 2 -x {4.0 0.0 -1 ------- null}
r -t 2.23007466666667 -s 2 -d 3 -p tcp -e 552 -c 2 -i 25 -a 2 -x {0.0 4.0 9 ------- null}
+ -t 2.23007466666667 -s 3 -d 4 -p tcp -e 552 -c 2 -i 25 -a 2 -x {0.0 4.0 9 ------- null}
- -t 2.23007466666667 -s 3 -d 4 -p tcp -e 552 -c 2 -i 25 -a 2 -x {0.0 4.0 9 ------- null}
h -t 2.23007466666667 -s 3 -d 4 -p tcp -e 552 -c 2 -i 25 -a 2 -x {0.0 4.0 -1 ------- null}
r -t 2.24479466666667 -s 2 -d 3 -p tcp -e 552 -c 2 -i 26 -a 2 -x {0.0 4.0 10 ------- null}
+ -t 2.24479466666667 -s 3 -d 4 -p tcp -e 552 -c 2 -i 26 -a 2 -x {0.0 4.0 10 ------- null}
- -t 2.24479466666667 -s 3 -d 4 -p tcp -e 552 -c 2 -i 26 -a 2 -x {0.0 4.0 10 ------- null}
h -t 2.24479466666667 -s 3 -d 4 -p tcp -e 552 -c 2 -i 26 -a 2 -x {0.0 4.0 -1 ------- null}
r -t 2.27890666666667 -s 3 -d 4 -p tcp -e 552 -c 2 -i 25 -a 2 -x {0.0 4.0 9 ------- null}
+ -t 2.27890666666667 -s 4 -d 3 -p ack -e 40 -c 2 -i 28 -a 2 -x {4.0 0.0 9 ------- null}
- -t 2.27890666666667 -s 4 -d 3 -p ack -e 40 -c 2 -i 28 -a 2 -x {4.0 0.0 9 ------- null}
h -t 2.27890666666667 -s 4 -d 3 -p ack -e 40 -c 2 -i 28 -a 2 -x {4.0 0.0 -1 ------- null}
r -t 2.29362666666667 -s 3 -d 4 -p tcp -e 552 -c 2 -i 26 -a 2 -x {0.0 4.0 10 ------- null}
r -t 2.31954666666667 -s 4 -d 3 -p ack -e 40 -c 2 -i 28 -a 2 -x {4.0 0.0 9 ------- null}
+ -t 2.31954666666667 -s 3 -d 2 -p ack -e 40 -c 2 -i 28 -a 2 -x {4.0 0.0 9 ------- null}
- -t 2.31954666666667 -s 3 -d 2 -p ack -e 40 -c 2 -i 28 -a 2 -x {4.0 0.0 9 ------- null}
h -t 2.31954666666667 -s 3 -d 2 -p ack -e 40 -c 2 -i 28 -a 2 -x {4.0 0.0 -1 ------- null}
r -t 2.32061333333333 -s 3 -d 2 -p ack -e 40 -c 2 -i 27 -a 2 -x {4.0 0.0 7 ------- null}
+ -t 2.32061333333333 -s 2 -d 0 -p ack -e 40 -c 2 -i 27 -a 2 -x {4.0 0.0 7 ------- null}
- -t 2.32061333333333 -s 2 -d 0 -p ack -e 40 -c 2 -i 27 -a 2 -x {4.0 0.0 7 ------- null}
h -t 2.32061333333333 -s 2 -d 0 -p ack -e 40 -c 2 -i 27 -a 2 -x {4.0 0.0 -1 ------- null}
r -t 2.33077333333333 -s 2 -d 0 -p ack -e 40 -c 2 -i 27 -a 2 -x {4.0 0.0 7 ------- null}
+ -t 2.33077333333333 -s 0 -d 2 -p tcp -e 552 -c 2 -i 29 -a 2 -x {0.0 4.0 11 ------- null}
- -t 2.33077333333333 -s 0 -d 2 -p tcp -e 552 -c 2 -i 29 -a 2 -x {0.0 4.0 11 ------- null}
h -t 2.33077333333333 -s 0 -d 2 -p tcp -e 552 -c 2 -i 29 -a 2 -x {0.0 4.0 -1 ------- null}
+ -t 2.33077333333333 -s 0 -d 2 -p tcp -e 552 -c 2 -i 30 -a 2 -x {0.0 4.0 12 ------- null}
+ -t 2.33077333333333 -s 0 -d 2 -p tcp -e 552 -c 2 -i 31 -a 2 -x {0.0 4.0 13 ------- null}
- -t 2.33298133333333 -s 0 -d 2 -p tcp -e 552 -c 2 -i 30 -a 2 -x {0.0 4.0 12 ------- null}
h -t 2.33298133333333 -s 0 -d 2 -p tcp -e 552 -c 2 -i 30 -a 2 -x {0.0 4.0 -1 ------- null}
- -t 2.33518933333333 -s 0 -d 2 -p tcp -e 552 -c 2 -i 31 -a 2 -x {0.0 4.0 13 ------- null}
h -t 2.33518933333333 -s 0 -d 2 -p tcp -e 552 -c 2 -i 31 -a 2 -x {0.0 4.0 -1 ------- null}
r -t 2.34298133333333 -s 0 -d 2 -p tcp -e 552 -c 2 -i 29 -a 2 -x {0.0 4.0 11 ------- null}
+ -t 2.34298133333333 -s 2 -d 3 -p tcp -e 552 -c 2 -i 29 -a 2 -x {0.0 4.0 11 ------- null}
- -t 2.34298133333333 -s 2 -d 3 -p tcp -e 552 -c 2 -i 29 -a 2 -x {0.0 4.0 11 ------- null}
h -t 2.34298133333333 -s 2 -d 3 -p tcp -e 552 -c 2 -i 29 -a 2 -x {0.0 4.0 -1 ------- null}
r -t 2.34518933333333 -s 0 -d 2 -p tcp -e 552 -c 2 -i 30 -a 2 -x {0.0 4.0 12 ------- null}
+ -t 2.34518933333333 -s 2 -d 3 -p tcp -e 552 -c 2 -i 30 -a 2 -x {0.0 4.0 12 ------- null}
r -t 2.34739733333333 -s 0 -d 2 -p tcp -e 552 -c 2 -i 31 -a 2 -x {0.0 4.0 13 ------- null}
+ -t 2.34739733333333 -s 2 -d 3 -p tcp -e 552 -c 2 -i 31 -a 2 -x {0.0 4.0 13 ------- null}
- -t 2.35770133333333 -s 2 -d 3 -p tcp -e 552 -c 2 -i 30 -a 2 -x {0.0 4.0 12 ------- null}
h -t 2.35770133333333 -s 2 -d 3 -p tcp -e 552 -c 2 -i 30 -a 2 -x {0.0 4.0 -1 ------- null}
- -t 2.37242133333333 -s 2 -d 3 -p tcp -e 552 -c 2 -i 31 -a 2 -x {0.0 4.0 13 ------- null}
h -t 2.37242133333333 -s 2 -d 3 -p tcp -e 552 -c 2 -i 31 -a 2 -x {0.0 4.0 -1 ------- null}
+ -t 2.39362666666667 -s 4 -d 3 -p ack -e 40 -c 2 -i 32 -a 2 -x {4.0 0.0 10 ------- null}
- -t 2.39362666666667 -s 4 -d 3 -p ack -e 40 -c 2 -i 32 -a 2 -x {4.0 0.0 10 ------- null}
h -t 2.39362666666667 -s 4 -d 3 -p ack -e 40 -c 2 -i 32 -a 2 -x {4.0 0.0 -1 ------- null}
r -t 2.42061333333333 -s 3 -d 2 -p ack -e 40 -c 2 -i 28 -a 2 -x {4.0 0.0 9 ------- null}
+ -t 2.42061333333333 -s 2 -d 0 -p ack -e 40 -c 2 -i 28 -a 2 -x {4.0 0.0 9 ------- null}
- -t 2.42061333333333 -s 2 -d 0 -p ack -e 40 -c 2 -i 28 -a 2 -x {4.0 0.0 9 ------- null}
h -t 2.42061333333333 -s 2 -d 0 -p ack -e 40 -c 2 -i 28 -a 2 -x {4.0 0.0 -1 ------- null}
r -t 2.43077333333333 -s 2 -d 0 -p ack -e 40 -c 2 -i 28 -a 2 -x {4.0 0.0 9 ------- null}
+ -t 2.43077333333333 -s 0 -d 2 -p tcp -e 552 -c 2 -i 33 -a 2 -x {0.0 4.0 14 ------- null}
- -t 2.43077333333333 -s 0 -d 2 -p tcp -e 552 -c 2 -i 33 -a 2 -x {0.0 4.0 14 ------- null}
h -t 2.43077333333333 -s 0 -d 2 -p tcp -e 552 -c 2 -i 33 -a 2 -x {0.0 4.0 -1 ------- null}
+ -t 2.43077333333333 -s 0 -d 2 -p tcp -e 552 -c 2 -i 34 -a 2 -x {0.0 4.0 15 ------- null}
+ -t 2.43077333333333 -s 0 -d 2 -p tcp -e 552 -c 2 -i 35 -a 2 -x {0.0 4.0 16 ------- null}
- -t 2.43298133333333 -s 0 -d 2 -p tcp -e 552 -c 2 -i 34 -a 2 -x {0.0 4.0 15 ------- null}
h -t 2.43298133333333 -s 0 -d 2 -p tcp -e 552 -c 2 -i 34 -a 2 -x {0.0 4.0 -1 ------- null}
r -t 2.43426666666667 -s 4 -d 3 -p ack -e 40 -c 2 -i 32 -a 2 -x {4.0 0.0 10 ------- null}
+ -t 2.43426666666667 -s 3 -d 2 -p ack -e 40 -c 2 -i 32 -a 2 -x {4.0 0.0 10 ------- null}
- -t 2.43426666666667 -s 3 -d 2 -p ack -e 40 -c 2 -i 32 -a 2 -x {4.0 0.0 10 ------- null}
h -t 2.43426666666667 -s 3 -d 2 -p ack -e 40 -c 2 -i 32 -a 2 -x {4.0 0.0 -1 ------- null}
- -t 2.43518933333333 -s 0 -d 2 -p tcp -e 552 -c 2 -i 35 -a 2 -x {0.0 4.0 16 ------- null}
h -t 2.43518933333333 -s 0 -d 2 -p tcp -e 552 -c 2 -i 35 -a 2 -x {0.0 4.0 -1 ------- null}
r -t 2.44298133333333 -s 0 -d 2 -p tcp -e 552 -c 2 -i 33 -a 2 -x {0.0 4.0 14 ------- null}
+ -t 2.44298133333333 -s 2 -d 3 -p tcp -e 552 -c 2 -i 33 -a 2 -x {0.0 4.0 14 ------- null}
- -t 2.44298133333333 -s 2 -d 3 -p tcp -e 552 -c 2 -i 33 -a 2 -x {0.0 4.0 14 ------- null}
h -t 2.44298133333333 -s 2 -d 3 -p tcp -e 552 -c 2 -i 33 -a 2 -x {0.0 4.0 -1 ------- null}
r -t 2.44518933333333 -s 0 -d 2 -p tcp -e 552 -c 2 -i 34 -a 2 -x {0.0 4.0 15 ------- null}
+ -t 2.44518933333333 -s 2 -d 3 -p tcp -e 552 -c 2 -i 34 -a 2 -x {0.0 4.0 15 ------- null}
r -t 2.44739733333333 -s 0 -d 2 -p tcp -e 552 -c 2 -i 35 -a 2 -x {0.0 4.0 16 ------- null}
+ -t 2.44739733333333 -s 2 -d 3 -p tcp -e 552 -c 2 -i 35 -a 2 -x {0.0 4.0 16 ------- null}
r -t 2.45770133333333 -s 2 -d 3 -p tcp -e 552 -c 2 -i 29 -a 2 -x {0.0 4.0 11 ------- null}
+ -t 2.45770133333333 -s 3 -d 4 -p tcp -e 552 -c 2 -i 29 -a 2 -x {0.0 4.0 11 ------- null}
- -t 2.45770133333333 -s 3 -d 4 -p tcp -e 552 -c 2 -i 29 -a 2 -x {0.0 4.0 11 ------- null}
h -t 2.45770133333333 -s 3 -d 4 -p tcp -e 552 -c 2 -i 29 -a 2 -x {0.0 4.0 -1 ------- null}
- -t 2.45770133333333 -s 2 -d 3 -p tcp -e 552 -c 2 -i 34 -a 2 -x {0.0 4.0 15 ------- null}
h -t 2.45770133333333 -s 2 -d 3 -p tcp -e 552 -c 2 -i 34 -a 2 -x {0.0 4.0 -1 ------- null}
r -t 2.47242133333333 -s 2 -d 3 -p tcp -e 552 -c 2 -i 30 -a 2 -x {0.0 4.0 12 ------- null}
+ -t 2.47242133333333 -s 3 -d 4 -p tcp -e 552 -c 2 -i 30 -a 2 -x {0.0 4.0 12 ------- null}
- -t 2.47242133333333 -s 3 -d 4 -p tcp -e 552 -c 2 -i 30 -a 2 -x {0.0 4.0 12 ------- null}
h -t 2.47242133333333 -s 3 -d 4 -p tcp -e 552 -c 2 -i 30 -a 2 -x {0.0 4.0 -1 ------- null}
- -t 2.47242133333333 -s 2 -d 3 -p tcp -e 552 -c 2 -i 35 -a 2 -x {0.0 4.0 16 ------- null}
h -t 2.47242133333333 -s 2 -d 3 -p tcp -e 552 -c 2 -i 35 -a 2 -x {0.0 4.0 -1 ------- null}
r -t 2.48714133333333 -s 2 -d 3 -p tcp -e 552 -c 2 -i 31 -a 2 -x {0.0 4.0 13 ------- null}
+ -t 2.48714133333333 -s 3 -d 4 -p tcp -e 552 -c 2 -i 31 -a 2 -x {0.0 4.0 13 ------- null}
- -t 2.48714133333333 -s 3 -d 4 -p tcp -e 552 -c 2 -i 31 -a 2 -x {0.0 4.0 13 ------- null}
h -t 2.48714133333333 -s 3 -d 4 -p tcp -e 552 -c 2 -i 31 -a 2 -x {0.0 4.0 -1 ------- null}
r -t 2.50653333333333 -s 3 -d 4 -p tcp -e 552 -c 2 -i 29 -a 2 -x {0.0 4.0 11 ------- null}
r -t 2.52125333333333 -s 3 -d 4 -p tcp -e 552 -c 2 -i 30 -a 2 -x {0.0 4.0 12 ------- null}
+ -t 2.52125333333333 -s 4 -d 3 -p ack -e 40 -c 2 -i 36 -a 2 -x {4.0 0.0 12 ------- null}
- -t 2.52125333333333 -s 4 -d 3 -p ack -e 40 -c 2 -i 36 -a 2 -x {4.0 0.0 12 ------- null}
h -t 2.52125333333333 -s 4 -d 3 -p ack -e 40 -c 2 -i 36 -a 2 -x {4.0 0.0 -1 ------- null}
r -t 2.53533333333333 -s 3 -d 2 -p ack -e 40 -c 2 -i 32 -a 2 -x {4.0 0.0 10 ------- null}
+ -t 2.53533333333333 -s 2 -d 0 -p ack -e 40 -c 2 -i 32 -a 2 -x {4.0 0.0 10 ------- null}
- -t 2.53533333333333 -s 2 -d 0 -p ack -e 40 -c 2 -i 32 -a 2 -x {4.0 0.0 10 ------- null}
h -t 2.53533333333333 -s 2 -d 0 -p ack -e 40 -c 2 -i 32 -a 2 -x {4.0 0.0 -1 ------- null}
r -t 2.53597333333333 -s 3 -d 4 -p tcp -e 552 -c 2 -i 31 -a 2 -x {0.0 4.0 13 ------- null}
r -t 2.54549333333333 -s 2 -d 0 -p ack -e 40 -c 2 -i 32 -a 2 -x {4.0 0.0 10 ------- null}
+ -t 2.54549333333333 -s 0 -d 2 -p tcp -e 552 -c 2 -i 37 -a 2 -x {0.0 4.0 17 ------- null}
- -t 2.54549333333333 -s 0 -d 2 -p tcp -e 552 -c 2 -i 37 -a 2 -x {0.0 4.0 17 ------- null}
h -t 2.54549333333333 -s 0 -d 2 -p tcp -e 552 -c 2 -i 37 -a 2 -x {0.0 4.0 -1 ------- null}
+ -t 2.54549333333333 -s 0 -d 2 -p tcp -e 552 -c 2 -i 38 -a 2 -x {0.0 4.0 18 ------- null}
- -t 2.54770133333333 -s 0 -d 2 -p tcp -e 552 -c 2 -i 38 -a 2 -x {0.0 4.0 18 ------- null}
h -t 2.54770133333333 -s 0 -d 2 -p tcp -e 552 -c 2 -i 38 -a 2 -x {0.0 4.0 -1 ------- null}
r -t 2.55770133333333 -s 2 -d 3 -p tcp -e 552 -c 2 -i 33 -a 2 -x {0.0 4.0 14 ------- null}
+ -t 2.55770133333333 -s 3 -d 4 -p tcp -e 552 -c 2 -i 33 -a 2 -x {0.0 4.0 14 ------- null}
- -t 2.55770133333333 -s 3 -d 4 -p tcp -e 552 -c 2 -i 33 -a 2 -x {0.0 4.0 14 ------- null}
h -t 2.55770133333333 -s 3 -d 4 -p tcp -e 552 -c 2 -i 33 -a 2 -x {0.0 4.0 -1 ------- null}
r -t 2.55770133333333 -s 0 -d 2 -p tcp -e 552 -c 2 -i 37 -a 2 -x {0.0 4.0 17 ------- null}
+ -t 2.55770133333333 -s 2 -d 3 -p tcp -e 552 -c 2 -i 37 -a 2 -x {0.0 4.0 17 ------- null}
- -t 2.55770133333333 -s 2 -d 3 -p tcp -e 552 -c 2 -i 37 -a 2 -x {0.0 4.0 17 ------- null}
h -t 2.55770133333333 -s 2 -d 3 -p tcp -e 552 -c 2 -i 37 -a 2 -x {0.0 4.0 -1 ------- null}
r -t 2.55990933333333 -s 0 -d 2 -p tcp -e 552 -c 2 -i 38 -a 2 -x {0.0 4.0 18 ------- null}
+ -t 2.55990933333333 -s 2 -d 3 -p tcp -e 552 -c 2 -i 38 -a 2 -x {0.0 4.0 18 ------- null}
r -t 2.56189333333333 -s 4 -d 3 -p ack -e 40 -c 2 -i 36 -a 2 -x {4.0 0.0 12 ------- null}
+ -t 2.56189333333333 -s 3 -d 2 -p ack -e 40 -c 2 -i 36 -a 2 -x {4.0 0.0 12 ------- null}
- -t 2.56189333333333 -s 3 -d 2 -p ack -e 40 -c 2 -i 36 -a 2 -x {4.0 0.0 12 ------- null}
h -t 2.56189333333333 -s 3 -d 2 -p ack -e 40 -c 2 -i 36 -a 2 -x {4.0 0.0 -1 ------- null}
r -t 2.57242133333333 -s 2 -d 3 -p tcp -e 552 -c 2 -i 34 -a 2 -x {0.0 4.0 15 ------- null}
+ -t 2.57242133333333 -s 3 -d 4 -p tcp -e 552 -c 2 -i 34 -a 2 -x {0.0 4.0 15 ------- null}
- -t 2.57242133333333 -s 3 -d 4 -p tcp -e 552 -c 2 -i 34 -a 2 -x {0.0 4.0 15 ------- null}
h -t 2.57242133333333 -s 3 -d 4 -p tcp -e 552 -c 2 -i 34 -a 2 -x {0.0 4.0 -1 ------- null}
- -t 2.57242133333333 -s 2 -d 3 -p tcp -e 552 -c 2 -i 38 -a 2 -x {0.0 4.0 18 ------- null}
h -t 2.57242133333333 -s 2 -d 3 -p tcp -e 552 -c 2 -i 38 -a 2 -x {0.0 4.0 -1 ------- null}
r -t 2.58714133333333 -s 2 -d 3 -p tcp -e 552 -c 2 -i 35 -a 2 -x {0.0 4.0 16 ------- null}
+ -t 2.58714133333333 -s 3 -d 4 -p tcp -e 552 -c 2 -i 35 -a 2 -x {0.0 4.0 16 ------- null}
- -t 2.58714133333333 -s 3 -d 4 -p tcp -e 552 -c 2 -i 35 -a 2 -x {0.0 4.0 16 ------- null}
h -t 2.58714133333333 -s 3 -d 4 -p tcp -e 552 -c 2 -i 35 -a 2 -x {0.0 4.0 -1 ------- null}
r -t 2.60653333333333 -s 3 -d 4 -p tcp -e 552 -c 2 -i 33 -a 2 -x {0.0 4.0 14 ------- null}
+ -t 2.60653333333333 -s 4 -d 3 -p ack -e 40 -c 2 -i 41 -a 2 -x {4.0 0.0 14 ------- null}
- -t 2.60653333333333 -s 4 -d 3 -p ack -e 40 -c 2 -i 41 -a 2 -x {4.0 0.0 14 ------- null}
h -t 2.60653333333333 -s 4 -d 3 -p ack -e 40 -c 2 -i 41 -a 2 -x {4.0 0.0 -1 ------- null}
r -t 2.62125333333333 -s 3 -d 4 -p tcp -e 552 -c 2 -i 34 -a 2 -x {0.0 4.0 15 ------- null}
r -t 2.63597333333333 -s 3 -d 4 -p tcp -e 552 -c 2 -i 35 -a 2 -x {0.0 4.0 16 ------- null}
+ -t 2.63597333333333 -s 4 -d 3 -p ack -e 40 -c 2 -i 42 -a 2 -x {4.0 0.0 16 ------- null}
- -t 2.63597333333333 -s 4 -d 3 -p ack -e 40 -c 2 -i 42 -a 2 -x {4.0 0.0 16 ------- null}
h -t 2.63597333333333 -s 4 -d 3 -p ack -e 40 -c 2 -i 42 -a 2 -x {4.0 0.0 -1 ------- null}
r -t 2.64717333333333 -s 4 -d 3 -p ack -e 40 -c 2 -i 41 -a 2 -x {4.0 0.0 14 ------- null}
+ -t 2.64717333333333 -s 3 -d 2 -p ack -e 40 -c 2 -i 41 -a 2 -x {4.0 0.0 14 ------- null}
- -t 2.64717333333333 -s 3 -d 2 -p ack -e 40 -c 2 -i 41 -a 2 -x {4.0 0.0 14 ------- null}
h -t 2.64717333333333 -s 3 -d 2 -p ack -e 40 -c 2 -i 41 -a 2 -x {4.0 0.0 -1 ------- null}
r -t 2.66296 -s 3 -d 2 -p ack -e 40 -c 2 -i 36 -a 2 -x {4.0 0.0 12 ------- null}
+ -t 2.66296 -s 2 -d 0 -p ack -e 40 -c 2 -i 36 -a 2 -x {4.0 0.0 12 ------- null}
- -t 2.66296 -s 2 -d 0 -p ack -e 40 -c 2 -i 36 -a 2 -x {4.0 0.0 12 ------- null}
h -t 2.66296 -s 2 -d 0 -p ack -e 40 -c 2 -i 36 -a 2 -x {4.0 0.0 -1 ------- null}
r -t 2.67242133333333 -s 2 -d 3 -p tcp -e 552 -c 2 -i 37 -a 2 -x {0.0 4.0 17 ------- null}
+ -t 2.67242133333333 -s 3 -d 4 -p tcp -e 552 -c 2 -i 37 -a 2 -x {0.0 4.0 17 ------- null}
- -t 2.67242133333333 -s 3 -d 4 -p tcp -e 552 -c 2 -i 37 -a 2 -x {0.0 4.0 17 ------- null}
h -t 2.67242133333333 -s 3 -d 4 -p tcp -e 552 -c 2 -i 37 -a 2 -x {0.0 4.0 -1 ------- null}
r -t 2.67312 -s 2 -d 0 -p ack -e 40 -c 2 -i 36 -a 2 -x {4.0 0.0 12 ------- null}
+ -t 2.67312 -s 0 -d 2 -p tcp -e 552 -c 2 -i 45 -a 2 -x {0.0 4.0 19 ------- null}
- -t 2.67312 -s 0 -d 2 -p tcp -e 552 -c 2 -i 45 -a 2 -x {0.0 4.0 19 ------- null}